#ver. 01 BCC-Fe [111],[-1-12],[1-10] + dislocation and loop, metal units, 300K
    76800 atoms
    1 atom types

-39.573897 39.573897 xlo xhi
-69.957427 69.951962 ylo yhi
-40.389939 40.389939 zlo zhi
-1.2367 0.0000 0.0000 xy xz yz

Masses

    1 55.845

Atoms

	1	1	-37.924984 -69.957427 -40.389939
	2	1	-37.094701 -68.791470 -38.370442
	3	1	-35.451616 -69.957427 -40.389939
	4	1	-37.112486 -65.293599 -40.389939
	5	1	-37.924984 -66.459556 -38.370442
	6	1	-35.451616 -66.459556 -38.370442
	7	1	-36.281899 -67.625513 -40.389939
	8	1	-33.808531 -67.625513 -40.389939
	9	1	-34.621333 -68.791470 -38.370442
	10	1	-36.282214 -64.127641 -38.370442
	11	1	-33.808846 -64.127641 -38.370442
	12	1	-34.639118 -65.293599 -40.389939
	13	1	-32.978247 -69.957427 -40.389939
	14	1	-32.147964 -68.791470 -38.370442
	15	1	-30.504879 -69.957427 -40.389939
	16	1	-32.165749 -65.293599 -40.389939
	17	1	-32.978247 -66.459556 -38.370442
	18	1	-30.504879 -66.459556 -38.370442
	19	1	-31.335162 -67.625513 -40.389939
	20	1	-28.861794 -67.625513 -40.389939
	21	1	-29.674596 -68.791470 -38.370442
	22	1	-31.335477 -64.127641 -38.370442
	23	1	-28.862108 -64.127641 -38.370442
	24	1	-29.692381 -65.293599 -40.389939
	25	1	-28.031510 -69.957427 -40.389939
	26	1	-27.201227 -68.791470 -38.370442
	27	1	-25.558142 -69.957427 -40.389939
	28	1	-27.219012 -65.293599 -40.389939
	29	1	-28.031510 -66.459556 -38.370442
	30	1	-25.558142 -66.459556 -38.370442
	31	1	-26.388425 -67.625513 -40.389939
	32	1	-23.915056 -67.625513 -40.389939
	33	1	-24.727858 -68.791470 -38.370442
	34	1	-26.388740 -64.127641 -38.370442
	35	1	-23.915371 -64.127641 -38.370442
	36	1	-24.745644 -65.293599 -40.389939
	37	1	-23.084773 -69.957427 -40.389939
	38	1	-22.254490 -68.791470 -38.370442
	39	1	-20.611405 -69.957427 -40.389939
	40	1	-22.272275 -65.293599 -40.389939
	41	1	-23.084773 -66.459556 -38.370442
	42	1	-20.611405 -66.459556 -38.370442
	43	1	-21.441688 -67.625513 -40.389939
	44	1	-18.968319 -67.625513 -40.389939
	45	1	-19.781121 -68.791470 -38.370442
	46	1	-21.442003 -64.127641 -38.370442
	47	1	-18.968634 -64.127641 -38.370442
	48	1	-19.798906 -65.293599 -40.389939
	49	1	-18.138036 -69.957427 -40.389939
	50	1	-17.307753 -68.791470 -38.370442
	51	1	-15.664668 -69.957427 -40.389939
	52	1	-17.325538 -65.293599 -40.389939
	53	1	-18.138036 -66.459556 -38.370442
	54	1	-15.664668 -66.459556 -38.370442
	55	1	-16.494951 -67.625513 -40.389939
	56	1	-14.021582 -67.625513 -40.389939
	57	1	-14.834384 -68.791470 -38.370442
	58	1	-16.495266 -64.127641 -38.370442
	59	1	-14.021897 -64.127641 -38.370442
	60	1	-14.852169 -65.293599 -40.389939
	61	1	-13.191299 -69.957427 -40.389939
	62	1	-12.361016 -68.791470 -38.370442
	63	1	-10.717930 -69.957427 -40.389939
	64	1	-12.378801 -65.293599 -40.389939
	65	1	-13.191299 -66.459556 -38.370442
	66	1	-10.717930 -66.459556 -38.370442
	67	1	-11.548214 -67.625513 -40.389939
	68	1	-9.074845 -67.625513 -40.389939
	69	1	-9.887647 -68.791470 -38.370442
	70	1	-11.548529 -64.127641 -38.370442
	71	1	-9.075160 -64.127641 -38.370442
	72	1	-9.905432 -65.293599 -40.389939
	73	1	-8.244562 -69.957427 -40.389939
	74	1	-7.414279 -68.791470 -38.370442
	75	1	-5.771193 -69.957427 -40.389939
	76	1	-7.432064 -65.293599 -40.389939
	77	1	-8.244562 -66.459556 -38.370442
	78	1	-5.771193 -66.459556 -38.370442
	79	1	-6.601477 -67.625513 -40.389939
	80	1	-4.128108 -67.625513 -40.389939
	81	1	-4.940910 -68.791470 -38.370442
	82	1	-6.601791 -64.127641 -38.370442
	83	1	-4.128423 -64.127641 -38.370442
	84	1	-4.958695 -65.293599 -40.389939
	85	1	-3.297825 -69.957427 -40.389939
	86	1	-2.467541 -68.791470 -38.370442
	87	1	-0.824456 -69.957427 -40.389939
	88	1	-2.485327 -65.293599 -40.389939
	89	1	-3.297825 -66.459556 -38.370442
	90	1	-0.824456 -66.459556 -38.370442
	91	1	-1.654739 -67.625513 -40.389939
	92	1	0.818629 -67.625513 -40.389939
	93	1	0.005827 -68.791470 -38.370442
	94	1	-1.655054 -64.127641 -38.370442
	95	1	0.818314 -64.127641 -38.370442
	96	1	-0.011958 -65.293599 -40.389939
	97	1	1.648912 -69.957427 -40.389939
	98	1	2.479196 -68.791470 -38.370442
	99	1	4.122281 -69.957427 -40.389939
	100	1	2.461410 -65.293599 -40.389939
	101	1	1.648912 -66.459556 -38.370442
	102	1	4.122281 -66.459556 -38.370442
	103	1	3.291998 -67.625513 -40.389939
	104	1	5.765366 -67.625513 -40.389939
	105	1	4.952564 -68.791470 -38.370442
	106	1	3.291683 -64.127641 -38.370442
	107	1	5.765051 -64.127641 -38.370442
	108	1	4.934779 -65.293599 -40.389939
	109	1	6.595649 -69.957427 -40.389939
	110	1	7.425933 -68.791470 -38.370442
	111	1	9.069018 -69.957427 -40.389939
	112	1	7.408148 -65.293599 -40.389939
	113	1	6.595649 -66.459556 -38.370442
	114	1	9.069018 -66.459556 -38.370442
	115	1	8.238735 -67.625513 -40.389939
	116	1	10.712103 -67.625513 -40.389939
	117	1	9.899301 -68.791470 -38.370442
	118	1	8.238420 -64.127641 -38.370442
	119	1	10.711788 -64.127641 -38.370442
	120	1	9.881516 -65.293599 -40.389939
	121	1	11.542387 -69.957427 -40.389939
	122	1	12.372670 -68.791470 -38.370442
	123	1	14.015755 -69.957427 -40.389939
	124	1	12.354885 -65.293599 -40.389939
	125	1	11.542387 -66.459556 -38.370442
	126	1	14.015755 -66.459556 -38.370442
	127	1	13.185472 -67.625513 -40.389939
	128	1	15.658840 -67.625513 -40.389939
	129	1	14.846038 -68.791470 -38.370442
	130	1	13.185157 -64.127641 -38.370442
	131	1	15.658525 -64.127641 -38.370442
	132	1	14.828253 -65.293599 -40.389939
	133	1	16.489124 -69.957427 -40.389939
	134	1	17.319407 -68.791470 -38.370442
	135	1	18.962492 -69.957427 -40.389939
	136	1	17.301622 -65.293599 -40.389939
	137	1	16.489124 -66.459556 -38.370442
	138	1	18.962492 -66.459556 -38.370442
	139	1	18.132209 -67.625513 -40.389939
	140	1	20.605578 -67.625513 -40.389939
	141	1	19.792776 -68.791470 -38.370442
	142	1	18.131894 -64.127641 -38.370442
	143	1	20.605263 -64.127641 -38.370442
	144	1	19.774990 -65.293599 -40.389939
	145	1	21.435861 -69.957427 -40.389939
	146	1	22.266144 -68.791470 -38.370442
	147	1	23.909229 -69.957427 -40.389939
	148	1	22.248359 -65.293599 -40.389939
	149	1	21.435861 -66.459556 -38.370442
	150	1	23.909229 -66.459556 -38.370442
	151	1	23.078946 -67.625513 -40.389939
	152	1	25.552315 -67.625513 -40.389939
	153	1	24.739513 -68.791470 -38.370442
	154	1	23.078631 -64.127641 -38.370442
	155	1	25.552000 -64.127641 -38.370442
	156	1	24.721727 -65.293599 -40.389939
	157	1	26.382598 -69.957427 -40.389939
	158	1	27.212881 -68.791470 -38.370442
	159	1	28.855966 -69.957427 -40.389939
	160	1	27.195096 -65.293599 -40.389939
	161	1	26.382598 -66.459556 -38.370442
	162	1	28.855966 -66.459556 -38.370442
	163	1	28.025683 -67.625513 -40.389939
	164	1	30.499052 -67.625513 -40.389939
	165	1	29.686250 -68.791470 -38.370442
	166	1	28.025368 -64.127641 -38.370442
	167	1	30.498737 -64.127641 -38.370442
	168	1	29.668465 -65.293599 -40.389939
	169	1	31.329335 -69.957427 -40.389939
	170	1	32.159618 -68.791470 -38.370442
	171	1	33.802704 -69.957427 -40.389939
	172	1	32.141833 -65.293599 -40.389939
	173	1	31.329335 -66.459556 -38.370442
	174	1	33.802704 -66.459556 -38.370442
	175	1	32.972420 -67.625513 -40.389939
	176	1	35.445789 -67.625513 -40.389939
	177	1	34.632987 -68.791470 -38.370442
	178	1	32.972105 -64.127641 -38.370442
	179	1	35.445474 -64.127641 -38.370442
	180	1	34.615202 -65.293599 -40.389939
	181	1	36.276072 -69.957427 -40.389939
	182	1	37.106355 -68.791470 -38.370442
	183	1	38.749441 -69.957427 -40.389939
	184	1	37.088570 -65.293599 -40.389939
	185	1	36.276072 -66.459556 -38.370442
	186	1	38.749441 -66.459556 -38.370442
	187	1	37.919157 -67.625513 -40.389939
	188	1	-38.755268 -67.625513 -40.389939
	189	1	-39.568070 -68.791470 -38.370442
	190	1	37.918842 -64.127641 -38.370442
	191	1	-38.755583 -64.127641 -38.370442
	192	1	39.561939 -65.293599 -40.389939
	193	1	-37.943399 -62.961684 -40.389939
	194	1	-37.113150 -61.795727 -38.370442
	195	1	-35.470030 -62.961684 -40.389939
	196	1	-37.132923 -58.297856 -40.389939
	197	1	-37.944449 -59.463813 -38.370442
	198	1	-35.471081 -59.463813 -38.370442
	199	1	-36.301290 -60.629770 -40.389939
	200	1	-33.827922 -60.629770 -40.389939
	201	1	-34.639782 -61.795727 -38.370442
	202	1	-36.302769 -57.131899 -38.370442
	203	1	-33.829401 -57.131899 -38.370442
	204	1	-34.659554 -58.297856 -40.389939
	205	1	-32.996661 -62.961684 -40.389939
	206	1	-32.166413 -61.795727 -38.370442
	207	1	-30.523293 -62.961684 -40.389939
	208	1	-32.186185 -58.297856 -40.389939
	209	1	-32.997712 -59.463813 -38.370442
	210	1	-30.524344 -59.463813 -38.370442
	211	1	-31.354553 -60.629770 -40.389939
	212	1	-28.881184 -60.629770 -40.389939
	213	1	-29.693045 -61.795727 -38.370442
	214	1	-31.356032 -57.131899 -38.370442
	215	1	-28.882663 -57.131899 -38.370442
	216	1	-29.712817 -58.297856 -40.389939
	217	1	-28.049924 -62.961684 -40.389939
	218	1	-27.219676 -61.795727 -38.370442
	219	1	-25.576556 -62.961684 -40.389939
	220	1	-27.239448 -58.297856 -40.389939
	221	1	-28.050975 -59.463813 -38.370442
	222	1	-25.577606 -59.463813 -38.370442
	223	1	-26.407816 -60.629770 -40.389939
	224	1	-23.934447 -60.629770 -40.389939
	225	1	-24.746307 -61.795727 -38.370442
	226	1	-26.409295 -57.131899 -38.370442
	227	1	-23.935926 -57.131899 -38.370442
	228	1	-24.766080 -58.297856 -40.389939
	229	1	-23.103187 -62.961684 -40.389939
	230	1	-22.272939 -61.795727 -38.370442
	231	1	-20.629819 -62.961684 -40.389939
	232	1	-22.292711 -58.297856 -40.389939
	233	1	-23.104238 -59.463813 -38.370442
	234	1	-20.630869 -59.463813 -38.370442
	235	1	-21.461079 -60.629770 -40.389939
	236	1	-18.987710 -60.629770 -40.389939
	237	1	-19.799570 -61.795727 -38.370442
	238	1	-21.462558 -57.131899 -38.370442
	239	1	-18.989189 -57.131899 -38.370442
	240	1	-19.819343 -58.297856 -40.389939
	241	1	-18.156450 -62.961684 -40.389939
	242	1	-17.326202 -61.795727 -38.370442
	243	1	-15.683082 -62.961684 -40.389939
	244	1	-17.345974 -58.297856 -40.389939
	245	1	-18.157501 -59.463813 -38.370442
	246	1	-15.684132 -59.463813 -38.370442
	247	1	-16.514342 -60.629770 -40.389939
	248	1	-14.040973 -60.629770 -40.389939
	249	1	-14.852833 -61.795727 -38.370442
	250	1	-16.515821 -57.131899 -38.370442
	251	1	-14.042452 -57.131899 -38.370442
	252	1	-14.872606 -58.297856 -40.389939
	253	1	-13.209713 -62.961684 -40.389939
	254	1	-12.379465 -61.795727 -38.370442
	255	1	-10.736345 -62.961684 -40.389939
	256	1	-12.399237 -58.297856 -40.389939
	257	1	-13.210764 -59.463813 -38.370442
	258	1	-10.737395 -59.463813 -38.370442
	259	1	-11.567605 -60.629770 -40.389939
	260	1	-9.094236 -60.629770 -40.389939
	261	1	-9.906096 -61.795727 -38.370442
	262	1	-11.569084 -57.131899 -38.370442
	263	1	-9.095715 -57.131899 -38.370442
	264	1	-9.925868 -58.297856 -40.389939
	265	1	-8.262976 -62.961684 -40.389939
	266	1	-7.432728 -61.795727 -38.370442
	267	1	-5.789607 -62.961684 -40.389939
	268	1	-7.452500 -58.297856 -40.389939
	269	1	-8.264027 -59.463813 -38.370442
	270	1	-5.790658 -59.463813 -38.370442
	271	1	-6.620868 -60.629770 -40.389939
	272	1	-4.147499 -60.629770 -40.389939
	273	1	-4.959359 -61.795727 -38.370442
	274	1	-6.622346 -57.131899 -38.370442
	275	1	-4.148978 -57.131899 -38.370442
	276	1	-4.979131 -58.297856 -40.389939
	277	1	-3.316239 -62.961684 -40.389939
	278	1	-2.485991 -61.795727 -38.370442
	279	1	-0.842870 -62.961684 -40.389939
	280	1	-2.505763 -58.297856 -40.389939
	281	1	-3.317289 -59.463813 -38.370442
	282	1	-0.843921 -59.463813 -38.370442
	283	1	-1.674130 -60.629770 -40.389939
	284	1	0.799238 -60.629770 -40.389939
	285	1	-0.012622 -61.795727 -38.370442
	286	1	-1.675609 -57.131899 -38.370442
	287	1	0.797759 -57.131899 -38.370442
	288	1	-0.032394 -58.297856 -40.389939
	289	1	1.630498 -62.961684 -40.389939
	290	1	2.460747 -61.795727 -38.370442
	291	1	4.103867 -62.961684 -40.389939
	292	1	2.440974 -58.297856 -40.389939
	293	1	1.629448 -59.463813 -38.370442
	294	1	4.102816 -59.463813 -38.370442
	295	1	3.272607 -60.629770 -40.389939
	296	1	5.745975 -60.629770 -40.389939
	297	1	4.934115 -61.795727 -38.370442
	298	1	3.271128 -57.131899 -38.370442
	299	1	5.744496 -57.131899 -38.370442
	300	1	4.914343 -58.297856 -40.389939
	301	1	6.577235 -62.961684 -40.389939
	302	1	7.407484 -61.795727 -38.370442
	303	1	9.050604 -62.961684 -40.389939
	304	1	7.387711 -58.297856 -40.389939
	305	1	6.576185 -59.463813 -38.370442
	306	1	9.049553 -59.463813 -38.370442
	307	1	8.219344 -60.629770 -40.389939
	308	1	10.692712 -60.629770 -40.389939
	309	1	9.880852 -61.795727 -38.370442
	310	1	8.217865 -57.131899 -38.370442
	311	1	10.691233 -57.131899 -38.370442
	312	1	9.861080 -58.297856 -40.389939
	313	1	11.523972 -62.961684 -40.389939
	314	1	12.354221 -61.795727 -38.370442
	315	1	13.997341 -62.961684 -40.389939
	316	1	12.334448 -58.297856 -40.389939
	317	1	11.522922 -59.463813 -38.370442
	318	1	13.996290 -59.463813 -38.370442
	319	1	13.166081 -60.629770 -40.389939
	320	1	15.639449 -60.629770 -40.389939
	321	1	14.827589 -61.795727 -38.370442
	322	1	13.164602 -57.131899 -38.370442
	323	1	15.637970 -57.131899 -38.370442
	324	1	14.807817 -58.297856 -40.389939
	325	1	16.470710 -62.961684 -40.389939
	326	1	17.300958 -61.795727 -38.370442
	327	1	18.944078 -62.961684 -40.389939
	328	1	17.281186 -58.297856 -40.389939
	329	1	16.469659 -59.463813 -38.370442
	330	1	18.943028 -59.463813 -38.370442
	331	1	18.112818 -60.629770 -40.389939
	332	1	20.586187 -60.629770 -40.389939
	333	1	19.774326 -61.795727 -38.370442
	334	1	18.111339 -57.131899 -38.370442
	335	1	20.584708 -57.131899 -38.370442
	336	1	19.754554 -58.297856 -40.389939
	337	1	21.417447 -62.961684 -40.389939
	338	1	22.247695 -61.795727 -38.370442
	339	1	23.890815 -62.961684 -40.389939
	340	1	22.227923 -58.297856 -40.389939
	341	1	21.416396 -59.463813 -38.370442
	342	1	23.889765 -59.463813 -38.370442
	343	1	23.059555 -60.629770 -40.389939
	344	1	25.532924 -60.629770 -40.389939
	345	1	24.721064 -61.795727 -38.370442
	346	1	23.058076 -57.131899 -38.370442
	347	1	25.531445 -57.131899 -38.370442
	348	1	24.701291 -58.297856 -40.389939
	349	1	26.364184 -62.961684 -40.389939
	350	1	27.194432 -61.795727 -38.370442
	351	1	28.837552 -62.961684 -40.389939
	352	1	27.174660 -58.297856 -40.389939
	353	1	26.363133 -59.463813 -38.370442
	354	1	28.836502 -59.463813 -38.370442
	355	1	28.006292 -60.629770 -40.389939
	356	1	30.479661 -60.629770 -40.389939
	357	1	29.667801 -61.795727 -38.370442
	358	1	28.004813 -57.131899 -38.370442
	359	1	30.478182 -57.131899 -38.370442
	360	1	29.648028 -58.297856 -40.389939
	361	1	31.310921 -62.961684 -40.389939
	362	1	32.141169 -61.795727 -38.370442
	363	1	33.784289 -62.961684 -40.389939
	364	1	32.121397 -58.297856 -40.389939
	365	1	31.309870 -59.463813 -38.370442
	366	1	33.783239 -59.463813 -38.370442
	367	1	32.953029 -60.629770 -40.389939
	368	1	35.426398 -60.629770 -40.389939
	369	1	34.614538 -61.795727 -38.370442
	370	1	32.951550 -57.131899 -38.370442
	371	1	35.424919 -57.131899 -38.370442
	372	1	34.594765 -58.297856 -40.389939
	373	1	36.257658 -62.961684 -40.389939
	374	1	37.087906 -61.795727 -38.370442
	375	1	38.731027 -62.961684 -40.389939
	376	1	37.068134 -58.297856 -40.389939
	377	1	36.256607 -59.463813 -38.370442
	378	1	38.729976 -59.463813 -38.370442
	379	1	37.899766 -60.629770 -40.389939
	380	1	-38.774659 -60.629770 -40.389939
	381	1	39.561275 -61.795727 -38.370442
	382	1	37.898287 -57.131899 -38.370442
	383	1	-38.776138 -57.131899 -38.370442
	384	1	39.541503 -58.297856 -40.389939
	385	1	-37.964954 -55.965942 -40.389939
	386	1	-37.134876 -54.799985 -38.370442
	387	1	-35.491585 -55.965942 -40.389939
	388	1	-37.156957 -51.302113 -40.389939
	389	1	-37.967433 -52.468070 -38.370442
	390	1	-35.494064 -52.468070 -38.370442
	391	1	-36.324043 -53.634027 -40.389939
	392	1	-33.850674 -53.634027 -40.389939
	393	1	-34.661508 -54.799985 -38.370442
	394	1	-36.327104 -50.136156 -38.370442
	395	1	-33.853736 -50.136156 -38.370442
	396	1	-34.683588 -51.302113 -40.389939
	397	1	-33.018217 -55.965942 -40.389939
	398	1	-32.188139 -54.799985 -38.370442
	399	1	-30.544848 -55.965942 -40.389939
	400	1	-32.210220 -51.302113 -40.389939
	401	1	-33.020696 -52.468070 -38.370442
	402	1	-30.547327 -52.468070 -38.370442
	403	1	-31.377306 -53.634027 -40.389939
	404	1	-28.903937 -53.634027 -40.389939
	405	1	-29.714771 -54.799985 -38.370442
	406	1	-31.380367 -50.136156 -38.370442
	407	1	-28.906998 -50.136156 -38.370442
	408	1	-29.736851 -51.302113 -40.389939
	409	1	-28.071479 -55.965942 -40.389939
	410	1	-27.241402 -54.799985 -38.370442
	411	1	-25.598111 -55.965942 -40.389939
	412	1	-27.263483 -51.302113 -40.389939
	413	1	-28.073959 -52.468070 -38.370442
	414	1	-25.600590 -52.468070 -38.370442
	415	1	-26.430569 -53.634027 -40.389939
	416	1	-23.957200 -53.634027 -40.389939
	417	1	-24.768033 -54.799985 -38.370442
	418	1	-26.433630 -50.136156 -38.370442
	419	1	-23.960261 -50.136156 -38.370442
	420	1	-24.790114 -51.302113 -40.389939
	421	1	-23.124742 -55.965942 -40.389939
	422	1	-22.294665 -54.799985 -38.370442
	423	1	-20.651374 -55.965942 -40.389939
	424	1	-22.316746 -51.302113 -40.389939
	425	1	-23.127222 -52.468070 -38.370442
	426	1	-20.653853 -52.468070 -38.370442
	427	1	-21.483831 -53.634027 -40.389939
	428	1	-19.010463 -53.634027 -40.389939
	429	1	-19.821296 -54.799985 -38.370442
	430	1	-21.486893 -50.136156 -38.370442
	431	1	-19.013524 -50.136156 -38.370442
	432	1	-19.843377 -51.302113 -40.389939
	433	1	-18.178005 -55.965942 -40.389939
	434	1	-17.347928 -54.799985 -38.370442
	435	1	-15.704637 -55.965942 -40.389939
	436	1	-17.370008 -51.302113 -40.389939
	437	1	-18.180484 -52.468070 -38.370442
	438	1	-15.707116 -52.468070 -38.370442
	439	1	-16.537094 -53.634027 -40.389939
	440	1	-14.063726 -53.634027 -40.389939
	441	1	-14.874559 -54.799985 -38.370442
	442	1	-16.540156 -50.136156 -38.370442
	443	1	-14.066787 -50.136156 -38.370442
	444	1	-14.896640 -51.302113 -40.389939
	445	1	-13.231268 -55.965942 -40.389939
	446	1	-12.401191 -54.799985 -38.370442
	447	1	-10.757900 -55.965942 -40.389939
	448	1	-12.423271 -51.302113 -40.389939
	449	1	-13.233747 -52.468070 -38.370442
	450	1	-10.760379 -52.468070 -38.370442
	451	1	-11.590357 -53.634027 -40.389939
	452	1	-9.116989 -53.634027 -40.389939
	453	1	-9.927822 -54.799985 -38.370442
	454	1	-11.593419 -50.136156 -38.370442
	455	1	-9.120050 -50.136156 -38.370442
	456	1	-9.949903 -51.302113 -40.389939
	457	1	-8.284531 -55.965942 -40.389939
	458	1	-7.454454 -54.799985 -38.370442
	459	1	-5.811162 -55.965942 -40.389939
	460	1	-7.476534 -51.302113 -40.389939
	461	1	-8.287010 -52.468070 -38.370442
	462	1	-5.813642 -52.468070 -38.370442
	463	1	-6.643620 -53.634027 -40.389939
	464	1	-4.170252 -53.634027 -40.389939
	465	1	-4.981085 -54.799985 -38.370442
	466	1	-6.646681 -50.136156 -38.370442
	467	1	-4.173313 -50.136156 -38.370442
	468	1	-5.003166 -51.302113 -40.389939
	469	1	-3.337794 -55.965942 -40.389939
	470	1	-2.507716 -54.799985 -38.370442
	471	1	-0.864425 -55.965942 -40.389939
	472	1	-2.529797 -51.302113 -40.389939
	473	1	-3.340273 -52.468070 -38.370442
	474	1	-0.866905 -52.468070 -38.370442
	475	1	-1.696883 -53.634027 -40.389939
	476	1	0.776486 -53.634027 -40.389939
	477	1	-0.034348 -54.799985 -38.370442
	478	1	-1.699944 -50.136156 -38.370442
	479	1	0.773424 -50.136156 -38.370442
	480	1	-0.056429 -51.302113 -40.389939
	481	1	1.608943 -55.965942 -40.389939
	482	1	2.439021 -54.799985 -38.370442
	483	1	4.082312 -55.965942 -40.389939
	484	1	2.416940 -51.302113 -40.389939
	485	1	1.606464 -52.468070 -38.370442
	486	1	4.079832 -52.468070 -38.370442
	487	1	3.249854 -53.634027 -40.389939
	488	1	5.723223 -53.634027 -40.389939
	489	1	4.912389 -54.799985 -38.370442
	490	1	3.246793 -50.136156 -38.370442
	491	1	5.720161 -50.136156 -38.370442
	492	1	4.890309 -51.302113 -40.389939
	493	1	6.555680 -55.965942 -40.389939
	494	1	7.385758 -54.799985 -38.370442
	495	1	9.029049 -55.965942 -40.389939
	496	1	7.363677 -51.302113 -40.389939
	497	1	6.553201 -52.468070 -38.370442
	498	1	9.026570 -52.468070 -38.370442
	499	1	8.196591 -53.634027 -40.389939
	500	1	10.669960 -53.634027 -40.389939
	501	1	9.859126 -54.799985 -38.370442
	502	1	8.193530 -50.136156 -38.370442
	503	1	10.666898 -50.136156 -38.370442
	504	1	9.837046 -51.302113 -40.389939
	505	1	11.502417 -55.965942 -40.389939
	506	1	12.332495 -54.799985 -38.370442
	507	1	13.975786 -55.965942 -40.389939
	508	1	12.310414 -51.302113 -40.389939
	509	1	11.499938 -52.468070 -38.370442
	510	1	13.973307 -52.468070 -38.370442
	511	1	13.143328 -53.634027 -40.389939
	512	1	15.616697 -53.634027 -40.389939
	513	1	14.805863 -54.799985 -38.370442
	514	1	13.140267 -50.136156 -38.370442
	515	1	15.613636 -50.136156 -38.370442
	516	1	14.783783 -51.302113 -40.389939
	517	1	16.449155 -55.965942 -40.389939
	518	1	17.279232 -54.799985 -38.370442
	519	1	18.922523 -55.965942 -40.389939
	520	1	17.257151 -51.302113 -40.389939
	521	1	16.446675 -52.468070 -38.370442
	522	1	18.920044 -52.468070 -38.370442
	523	1	18.090065 -53.634027 -40.389939
	524	1	20.563434 -53.634027 -40.389939
	525	1	19.752601 -54.799985 -38.370442
	526	1	18.087004 -50.136156 -38.370442
	527	1	20.560373 -50.136156 -38.370442
	528	1	19.730520 -51.302113 -40.389939
	529	1	21.395892 -55.965942 -40.389939
	530	1	22.225969 -54.799985 -38.370442
	531	1	23.869260 -55.965942 -40.389939
	532	1	22.203888 -51.302113 -40.389939
	533	1	21.393412 -52.468070 -38.370442
	534	1	23.866781 -52.468070 -38.370442
	535	1	23.036803 -53.634027 -40.389939
	536	1	25.510171 -53.634027 -40.389939
	537	1	24.699338 -54.799985 -38.370442
	538	1	23.033741 -50.136156 -38.370442
	539	1	25.507110 -50.136156 -38.370442
	540	1	24.677257 -51.302113 -40.389939
	541	1	26.342629 -55.965942 -40.389939
	542	1	27.172706 -54.799985 -38.370442
	543	1	28.815997 -55.965942 -40.389939
	544	1	27.150625 -51.302113 -40.389939
	545	1	26.340149 -52.468070 -38.370442
	546	1	28.813518 -52.468070 -38.370442
	547	1	27.983540 -53.634027 -40.389939
	548	1	30.456908 -53.634027 -40.389939
	549	1	29.646075 -54.799985 -38.370442
	550	1	27.980478 -50.136156 -38.370442
	551	1	30.453847 -50.136156 -38.370442
	552	1	29.623994 -51.302113 -40.389939
	553	1	31.289366 -55.965942 -40.389939
	554	1	32.119443 -54.799985 -38.370442
	555	1	33.762734 -55.965942 -40.389939
	556	1	32.097363 -51.302113 -40.389939
	557	1	31.286887 -52.468070 -38.370442
	558	1	33.760255 -52.468070 -38.370442
	559	1	32.930277 -53.634027 -40.389939
	560	1	35.403645 -53.634027 -40.389939
	561	1	34.592812 -54.799985 -38.370442
	562	1	32.927215 -50.136156 -38.370442
	563	1	35.400584 -50.136156 -38.370442
	564	1	34.570731 -51.302113 -40.389939
	565	1	36.236103 -55.965942 -40.389939
	566	1	37.066180 -54.799985 -38.370442
	567	1	38.709472 -55.965942 -40.389939
	568	1	37.044100 -51.302113 -40.389939
	569	1	36.233624 -52.468070 -38.370442
	570	1	38.706992 -52.468070 -38.370442
	571	1	37.877014 -53.634027 -40.389939
	572	1	-38.797411 -53.634027 -40.389939
	573	1	39.539549 -54.799985 -38.370442
	574	1	37.873953 -50.136156 -38.370442
	575	1	-38.800473 -50.136156 -38.370442
	576	1	39.517468 -51.302113 -40.389939
	577	1	-37.990359 -48.970199 -40.389939
	578	1	-37.160662 -47.804242 -38.370442
	579	1	-35.516991 -48.970199 -40.389939
	580	1	-37.185396 -44.306370 -40.389939
	581	1	-37.994777 -45.472328 -38.370442
	582	1	-35.521408 -45.472328 -38.370442
	583	1	-36.350915 -46.638285 -40.389939
	584	1	-33.877546 -46.638285 -40.389939
	585	1	-34.687294 -47.804242 -38.370442
	586	1	-36.356119 -43.140413 -38.370442
	587	1	-33.882751 -43.140413 -38.370442
	588	1	-34.712027 -44.306370 -40.389939
	589	1	-33.043622 -48.970199 -40.389939
	590	1	-32.213925 -47.804242 -38.370442
	591	1	-30.570254 -48.970199 -40.389939
	592	1	-32.238659 -44.306370 -40.389939
	593	1	-33.048040 -45.472328 -38.370442
	594	1	-30.574671 -45.472328 -38.370442
	595	1	-31.404178 -46.638285 -40.389939
	596	1	-28.930809 -46.638285 -40.389939
	597	1	-29.740557 -47.804242 -38.370442
	598	1	-31.409382 -43.140413 -38.370442
	599	1	-28.936014 -43.140413 -38.370442
	600	1	-29.765290 -44.306370 -40.389939
	601	1	-28.096885 -48.970199 -40.389939
	602	1	-27.267188 -47.804242 -38.370442
	603	1	-25.623517 -48.970199 -40.389939
	604	1	-27.291921 -44.306370 -40.389939
	605	1	-28.101303 -45.472328 -38.370442
	606	1	-25.627934 -45.472328 -38.370442
	607	1	-26.457441 -46.638285 -40.389939
	608	1	-23.984072 -46.638285 -40.389939
	609	1	-24.793820 -47.804242 -38.370442
	610	1	-26.462645 -43.140413 -38.370442
	611	1	-23.989276 -43.140413 -38.370442
	612	1	-24.818553 -44.306370 -40.389939
	613	1	-23.150148 -48.970199 -40.389939
	614	1	-22.320451 -47.804242 -38.370442
	615	1	-20.676779 -48.970199 -40.389939
	616	1	-22.345184 -44.306370 -40.389939
	617	1	-23.154566 -45.472328 -38.370442
	618	1	-20.681197 -45.472328 -38.370442
	619	1	-21.510704 -46.638285 -40.389939
	620	1	-19.037335 -46.638285 -40.389939
	621	1	-19.847082 -47.804242 -38.370442
	622	1	-21.515908 -43.140413 -38.370442
	623	1	-19.042539 -43.140413 -38.370442
	624	1	-19.871816 -44.306370 -40.389939
	625	1	-18.203411 -48.970199 -40.389939
	626	1	-17.373714 -47.804242 -38.370442
	627	1	-15.730042 -48.970199 -40.389939
	628	1	-17.398447 -44.306370 -40.389939
	629	1	-18.207829 -45.472328 -38.370442
	630	1	-15.734460 -45.472328 -38.370442
	631	1	-16.563966 -46.638285 -40.389939
	632	1	-14.090598 -46.638285 -40.389939
	633	1	-14.900345 -47.804242 -38.370442
	634	1	-16.569171 -43.140413 -38.370442
	635	1	-14.095802 -43.140413 -38.370442
	636	1	-14.925079 -44.306370 -40.389939
	637	1	-13.256674 -48.970199 -40.389939
	638	1	-12.426977 -47.804242 -38.370442
	639	1	-10.783305 -48.970199 -40.389939
	640	1	-12.451710 -44.306370 -40.389939
	641	1	-13.261091 -45.472328 -38.370442
	642	1	-10.787723 -45.472328 -38.370442
	643	1	-11.617229 -46.638285 -40.389939
	644	1	-9.143861 -46.638285 -40.389939
	645	1	-9.953608 -47.804242 -38.370442
	646	1	-11.622434 -43.140413 -38.370442
	647	1	-9.149065 -43.140413 -38.370442
	648	1	-9.978342 -44.306370 -40.389939
	649	1	-8.309937 -48.970199 -40.389939
	650	1	-7.480240 -47.804242 -38.370442
	651	1	-5.836568 -48.970199 -40.389939
	652	1	-7.504973 -44.306370 -40.389939
	653	1	-8.314354 -45.472328 -38.370442
	654	1	-5.840986 -45.472328 -38.370442
	655	1	-6.670492 -46.638285 -40.389939
	656	1	-4.197124 -46.638285 -40.389939
	657	1	-5.006871 -47.804242 -38.370442
	658	1	-6.675697 -43.140413 -38.370442
	659	1	-4.202328 -43.140413 -38.370442
	660	1	-5.031604 -44.306370 -40.389939
	661	1	-3.363200 -48.970199 -40.389939
	662	1	-2.533503 -47.804242 -38.370442
	663	1	-0.889831 -48.970199 -40.389939
	664	1	-2.558236 -44.306370 -40.389939
	665	1	-3.367617 -45.472328 -38.370442
	666	1	-0.894249 -45.472328 -38.370442
	667	1	-1.723755 -46.638285 -40.389939
	668	1	0.749613 -46.638285 -40.389939
	669	1	-0.060134 -47.804242 -38.370442
	670	1	-1.728960 -43.140413 -38.370442
	671	1	0.744409 -43.140413 -38.370442
	672	1	-0.084867 -44.306370 -40.389939
	673	1	1.583538 -48.970199 -40.389939
	674	1	2.413235 -47.804242 -38.370442
	675	1	4.056906 -48.970199 -40.389939
	676	1	2.388501 -44.306370 -40.389939
	677	1	1.579120 -45.472328 -38.370442
	678	1	4.052488 -45.472328 -38.370442
	679	1	3.222982 -46.638285 -40.389939
	680	1	5.696351 -46.638285 -40.389939
	681	1	4.886603 -47.804242 -38.370442
	682	1	3.217778 -43.140413 -38.370442
	683	1	5.691146 -43.140413 -38.370442
	684	1	4.861870 -44.306370 -40.389939
	685	1	6.530275 -48.970199 -40.389939
	686	1	7.359972 -47.804242 -38.370442
	687	1	9.003643 -48.970199 -40.389939
	688	1	7.335238 -44.306370 -40.389939
	689	1	6.525857 -45.472328 -38.370442
	690	1	8.999226 -45.472328 -38.370442
	691	1	8.169719 -46.638285 -40.389939
	692	1	10.643088 -46.638285 -40.389939
	693	1	9.833340 -47.804242 -38.370442
	694	1	8.164515 -43.140413 -38.370442
	695	1	10.637883 -43.140413 -38.370442
	696	1	9.808607 -44.306370 -40.389939
	697	1	11.477012 -48.970199 -40.389939
	698	1	12.306709 -47.804242 -38.370442
	699	1	13.950380 -48.970199 -40.389939
	700	1	12.281975 -44.306370 -40.389939
	701	1	11.472594 -45.472328 -38.370442
	702	1	13.945963 -45.472328 -38.370442
	703	1	13.116456 -46.638285 -40.389939
	704	1	15.589825 -46.638285 -40.389939
	705	1	14.780077 -47.804242 -38.370442
	706	1	13.111252 -43.140413 -38.370442
	707	1	15.584620 -43.140413 -38.370442
	708	1	14.755344 -44.306370 -40.389939
	709	1	16.423749 -48.970199 -40.389939
	710	1	17.253446 -47.804242 -38.370442
	711	1	18.897117 -48.970199 -40.389939
	712	1	17.228713 -44.306370 -40.389939
	713	1	16.419331 -45.472328 -38.370442
	714	1	18.892700 -45.472328 -38.370442
	715	1	18.063193 -46.638285 -40.389939
	716	1	20.536562 -46.638285 -40.389939
	717	1	19.726814 -47.804242 -38.370442
	718	1	18.057989 -43.140413 -38.370442
	719	1	20.531357 -43.140413 -38.370442
	720	1	19.702081 -44.306370 -40.389939
	721	1	21.370486 -48.970199 -40.389939
	722	1	22.200183 -47.804242 -38.370442
	723	1	23.843855 -48.970199 -40.389939
	724	1	22.175450 -44.306370 -40.389939
	725	1	21.366068 -45.472328 -38.370442
	726	1	23.839437 -45.472328 -38.370442
	727	1	23.009930 -46.638285 -40.389939
	728	1	25.483299 -46.638285 -40.389939
	729	1	24.673551 -47.804242 -38.370442
	730	1	23.004726 -43.140413 -38.370442
	731	1	25.478095 -43.140413 -38.370442
	732	1	24.648818 -44.306370 -40.389939
	733	1	26.317223 -48.970199 -40.389939
	734	1	27.146920 -47.804242 -38.370442
	735	1	28.790592 -48.970199 -40.389939
	736	1	27.122187 -44.306370 -40.389939
	737	1	26.312805 -45.472328 -38.370442
	738	1	28.786174 -45.472328 -38.370442
	739	1	27.956668 -46.638285 -40.389939
	740	1	30.430036 -46.638285 -40.389939
	741	1	29.620289 -47.804242 -38.370442
	742	1	27.951463 -43.140413 -38.370442
	743	1	30.424832 -43.140413 -38.370442
	744	1	29.595555 -44.306370 -40.389939
	745	1	31.263960 -48.970199 -40.389939
	746	1	32.093657 -47.804242 -38.370442
	747	1	33.737329 -48.970199 -40.389939
	748	1	32.068924 -44.306370 -40.389939
	749	1	31.259543 -45.472328 -38.370442
	750	1	33.732911 -45.472328 -38.370442
	751	1	32.903405 -46.638285 -40.389939
	752	1	35.376773 -46.638285 -40.389939
	753	1	34.567026 -47.804242 -38.370442
	754	1	32.898200 -43.140413 -38.370442
	755	1	35.371569 -43.140413 -38.370442
	756	1	34.542292 -44.306370 -40.389939
	757	1	36.210697 -48.970199 -40.389939
	758	1	37.040394 -47.804242 -38.370442
	759	1	38.684066 -48.970199 -40.389939
	760	1	37.015661 -44.306370 -40.389939