ITEM: TIMESTEP
0
ITEM: NUMBER OF ATOMS
76800
ITEM: BOX BOUNDS xy xz yz pp pp ss
-39.57390 39.57390 -1.23668
-69.95743 69.95196 0.00000
-40.38994 40.38994 0.00000
ITEM: ATOMS id type x y z
1 1 -37.9250 -69.9574 -40.3899
2 1 -37.0947 -68.7915 -38.3704
3 1 -35.4516 -69.9574 -40.3899
4 1 -37.1125 -65.2936 -40.3899
5 1 -37.9250 -66.4596 -38.3704
6 1 -35.4516 -66.4596 -38.3704
7 1 -36.2819 -67.6255 -40.3899
8 1 -33.8085 -67.6255 -40.3899
9 1 -34.6213 -68.7915 -38.3704
10 1 -36.2822 -64.1276 -38.3704
11 1 -33.8088 -64.1276 -38.3704
12 1 -34.6391 -65.2936 -40.3899
13 1 -32.9782 -69.9574 -40.3899
14 1 -32.1480 -68.7915 -38.3704
15 1 -30.5049 -69.9574 -40.3899
16 1 -32.1657 -65.2936 -40.3899
17 1 -32.9782 -66.4596 -38.3704
18 1 -30.5049 -66.4596 -38.3704
19 1 -31.3352 -67.6255 -40.3899
20 1 -28.8618 -67.6255 -40.3899
21 1 -29.6746 -68.7915 -38.3704
22 1 -31.3355 -64.1276 -38.3704
23 1 -28.8621 -64.1276 -38.3704
24 1 -29.6924 -65.2936 -40.3899
25 1 -28.0315 -69.9574 -40.3899
26 1 -27.2012 -68.7915 -38.3704
27 1 -25.5581 -69.9574 -40.3899
28 1 -27.2190 -65.2936 -40.3899
29 1 -28.0315 -66.4596 -38.3704
30 1 -25.5581 -66.4596 -38.3704
31 1 -26.3884 -67.6255 -40.3899
32 1 -23.9151 -67.6255 -40.3899
33 1 -24.7279 -68.7915 -38.3704
34 1 -26.3887 -64.1276 -38.3704
35 1 -23.9154 -64.1276 -38.3704
36 1 -24.7456 -65.2936 -40.3899
37 1 -23.0848 -69.9574 -40.3899
38 1 -22.2545 -68.7915 -38.3704
39 1 -20.6114 -69.9574 -40.3899
40 1 -22.2723 -65.2936 -40.3899
41 1 -23.0848 -66.4596 -38.3704
42 1 -20.6114 -66.4596 -38.3704
43 1 -21.4417 -67.6255 -40.3899
44 1 -18.9683 -67.6255 -40.3899
45 1 -19.7811 -68.7915 -38.3704
46 1 -21.4420 -64.1276 -38.3704
47 1 -18.9686 -64.1276 -38.3704
48 1 -19.7989 -65.2936 -40.3899
49 1 -18.1380 -69.9574 -40.3899
50 1 -17.3078 -68.7915 -38.3704
51 1 -15.6647 -69.9574 -40.3899
52 1 -17.3255 -65.2936 -40.3899
53 1 -18.1380 -66.4596 -38.3704
54 1 -15.6647 -66.4596 -38.3704
55 1 -16.4950 -67.6255 -40.3899
56 1 -14.0216 -67.6255 -40.3899
57 1 -14.8344 -68.7915 -38.3704
58 1 -16.4953 -64.1276 -38.3704
59 1 -14.0219 -64.1276 -38.3704
60 1 -14.8522 -65.2936 -40.3899
61 1 -13.1913 -69.9574 -40.3899
62 1 -12.3610 -68.7915 -38.3704
63 1 -10.7179 -69.9574 -40.3899
64 1 -12.3788 -65.2936 -40.3899
65 1 -13.1913 -66.4596 -38.3704
66 1 -10.7179 -66.4596 -38.3704
67 1 -11.5482 -67.6255 -40.3899
68 1 -9.0748 -67.6255 -40.3899
69 1 -9.8876 -68.7915 -38.3704
70 1 -11.5485 -64.1276 -38.3704
71 1 -9.0752 -64.1276 -38.3704
72 1 -9.9054 -65.2936 -40.3899
73 1 -8.2446 -69.9574 -40.3899
74 1 -7.4143 -68.7915 -38.3704
75 1 -5.7712 -69.9574 -40.3899
76 1 -7.4321 -65.2936 -40.3899
77 1 -8.2446 -66.4596 -38.3704
78 1 -5.7712 -66.4596 -38.3704
79 1 -6.6015 -67.6255 -40.3899
80 1 -4.1281 -67.6255 -40.3899
81 1 -4.9409 -68.7915 -38.3704
82 1 -6.6018 -64.1276 -38.3704
83 1 -4.1284 -64.1276 -38.3704
84 1 -4.9587 -65.2936 -40.3899
85 1 -3.2978 -69.9574 -40.3899
86 1 -2.4675 -68.7915 -38.3704
87 1 -0.8245 -69.9574 -40.3899
88 1 -2.4853 -65.2936 -40.3899
89 1 -3.2978 -66.4596 -38.3704
90 1 -0.8245 -66.4596 -38.3704
91 1 -1.6547 -67.6255 -40.3899
92 1 0.8186 -67.6255 -40.3899
93 1 0.0058 -68.7915 -38.3704
94 1 -1.6551 -64.1276 -38.3704
95 1 0.8183 -64.1276 -38.3704
96 1 -0.0120 -65.2936 -40.3899
97 1 1.6489 -69.9574 -40.3899
98 1 2.4792 -68.7915 -38.3704
99 1 4.1223 -69.9574 -40.3899
100 1 2.4614 -65.2936 -40.3899
101 1 1.6489 -66.4596 -38.3704
102 1 4.1223 -66.4596 -38.3704
103 1 3.2920 -67.6255 -40.3899
104 1 5.7654 -67.6255 -40.3899
105 1 4.9526 -68.7915 -38.3704
106 1 3.2917 -64.1276 -38.3704
107 1 5.7651 -64.1276 -38.3704
108 1 4.9348 -65.2936 -40.3899
109 1 6.5956 -69.9574 -40.3899
110 1 7.4259 -68.7915 -38.3704
111 1 9.0690 -69.9574 -40.3899
112 1 7.4081 -65.2936 -40.3899
113 1 6.5956 -66.4596 -38.3704
114 1 9.0690 -66.4596 -38.3704
115 1 8.2387 -67.6255 -40.3899
116 1 10.7121 -67.6255 -40.3899
117 1 9.8993 -68.7915 -38.3704
118 1 8.2384 -64.1276 -38.3704
119 1 10.7118 -64.1276 -38.3704
120 1 9.8815 -65.2936 -40.3899
121 1 11.5424 -69.9574 -40.3899
122 1 12.3727 -68.7915 -38.3704
123 1 14.0158 -69.9574 -40.3899
124 1 12.3549 -65.2936 -40.3899
125 1 11.5424 -66.4596 -38.3704
126 1 14.0158 -66.4596 -38.3704
127 1 13.1855 -67.6255 -40.3899
128 1 15.6588 -67.6255 -40.3899
129 1 14.8460 -68.7915 -38.3704
130 1 13.1852 -64.1276 -38.3704
131 1 15.6585 -64.1276 -38.3704
132 1 14.8283 -65.2936 -40.3899
133 1 16.4891 -69.9574 -40.3899
134 1 17.3194 -68.7915 -38.3704
135 1 18.9625 -69.9574 -40.3899
136 1 17.3016 -65.2936 -40.3899
137 1 16.4891 -66.4596 -38.3704
138 1 18.9625 -66.4596 -38.3704
139 1 18.1322 -67.6255 -40.3899
140 1 20.6056 -67.6255 -40.3899
141 1 19.7928 -68.7915 -38.3704
142 1 18.1319 -64.1276 -38.3704
143 1 20.6053 -64.1276 -38.3704
144 1 19.7750 -65.2936 -40.3899
145 1 21.4359 -69.9574 -40.3899
146 1 22.2661 -68.7915 -38.3704
147 1 23.9092 -69.9574 -40.3899
148 1 22.2484 -65.2936 -40.3899
149 1 21.4359 -66.4596 -38.3704
150 1 23.9092 -66.4596 -38.3704
151 1 23.0789 -67.6255 -40.3899
152 1 25.5523 -67.6255 -40.3899
153 1 24.7395 -68.7915 -38.3704
154 1 23.0786 -64.1276 -38.3704
155 1 25.5520 -64.1276 -38.3704
156 1 24.7217 -65.2936 -40.3899
157 1 26.3826 -69.9574 -40.3899
158 1 27.2129 -68.7915 -38.3704
159 1 28.8560 -69.9574 -40.3899
160 1 27.1951 -65.2936 -40.3899
161 1 26.3826 -66.4596 -38.3704
162 1 28.8560 -66.4596 -38.3704
163 1 28.0257 -67.6255 -40.3899
164 1 30.4991 -67.6255 -40.3899
165 1 29.6862 -68.7915 -38.3704
166 1 28.0254 -64.1276 -38.3704
167 1 30.4987 -64.1276 -38.3704
168 1 29.6685 -65.2936 -40.3899
169 1 31.3293 -69.9574 -40.3899
170 1 32.1596 -68.7915 -38.3704
171 1 33.8027 -69.9574 -40.3899
172 1 32.1418 -65.2936 -40.3899
173 1 31.3293 -66.4596 -38.3704
174 1 33.8027 -66.4596 -38.3704
175 1 32.9724 -67.6255 -40.3899
176 1 35.4458 -67.6255 -40.3899
177 1 34.6330 -68.7915 -38.3704
178 1 32.9721 -64.1276 -38.3704
179 1 35.4455 -64.1276 -38.3704
180 1 34.6152 -65.2936 -40.3899
181 1 36.2761 -69.9574 -40.3899
182 1 37.1064 -68.7915 -38.3704
183 1 38.7494 -69.9574 -40.3899
184 1 37.0886 -65.2936 -40.3899
185 1 36.2761 -66.4596 -38.3704
186 1 38.7494 -66.4596 -38.3704
187 1 37.9192 -67.6255 -40.3899
188 1 -38.7553 -67.6255 -40.3899
189 1 -39.5681 -68.7915 -38.3704
190 1 37.9188 -64.1276 -38.3704
191 1 -38.7556 -64.1276 -38.3704
192 1 39.5619 -65.2936 -40.3899
193 1 -37.9434 -62.9617 -40.3899
194 1 -37.1132 -61.7957 -38.3704
195 1 -35.4700 -62.9617 -40.3899
196 1 -37.1329 -58.2979 -40.3899
197 1 -37.9444 -59.4638 -38.3704
198 1 -35.4711 -59.4638 -38.3704
199 1 -36.3013 -60.6298 -40.3899
200 1 -33.8279 -60.6298 -40.3899
201 1 -34.6398 -61.7957 -38.3704
202 1 -36.3028 -57.1319 -38.3704
203 1 -33.8294 -57.1319 -38.3704
204 1 -34.6596 -58.2979 -40.3899
205 1 -32.9967 -62.9617 -40.3899
206 1 -32.1664 -61.7957 -38.3704
207 1 -30.5233 -62.9617 -40.3899
208 1 -32.1862 -58.2979 -40.3899
209 1 -32.9977 -59.4638 -38.3704
210 1 -30.5243 -59.4638 -38.3704
211 1 -31.3546 -60.6298 -40.3899
212 1 -28.8812 -60.6298 -40.3899
213 1 -29.6930 -61.7957 -38.3704
214 1 -31.3560 -57.1319 -38.3704
215 1 -28.8827 -57.1319 -38.3704
216 1 -29.7128 -58.2979 -40.3899
217 1 -28.0499 -62.9617 -40.3899
218 1 -27.2197 -61.7957 -38.3704
219 1 -25.5766 -62.9617 -40.3899
220 1 -27.2394 -58.2979 -40.3899
221 1 -28.0510 -59.4638 -38.3704
222 1 -25.5776 -59.4638 -38.3704
223 1 -26.4078 -60.6298 -40.3899
224 1 -23.9344 -60.6298 -40.3899
225 1 -24.7463 -61.7957 -38.3704
226 1 -26.4093 -57.1319 -38.3704
227 1 -23.9359 -57.1319 -38.3704
228 1 -24.7661 -58.2979 -40.3899
229 1 -23.1032 -62.9617 -40.3899
230 1 -22.2729 -61.7957 -38.3704
231 1 -20.6298 -62.9617 -40.3899
232 1 -22.2927 -58.2979 -40.3899
233 1 -23.1042 -59.4638 -38.3704
234 1 -20.6309 -59.4638 -38.3704
235 1 -21.4611 -60.6298 -40.3899
236 1 -18.9877 -60.6298 -40.3899
237 1 -19.7996 -61.7957 -38.3704
238 1 -21.4626 -57.1319 -38.3704
239 1 -18.9892 -57.1319 -38.3704
240 1 -19.8193 -58.2979 -40.3899
241 1 -18.1565 -62.9617 -40.3899
242 1 -17.3262 -61.7957 -38.3704
243 1 -15.6831 -62.9617 -40.3899
244 1 -17.3460 -58.2979 -40.3899
245 1 -18.1575 -59.4638 -38.3704
246 1 -15.6841 -59.4638 -38.3704
247 1 -16.5143 -60.6298 -40.3899
248 1 -14.0410 -60.6298 -40.3899
249 1 -14.8528 -61.7957 -38.3704
250 1 -16.5158 -57.1319 -38.3704
251 1 -14.0425 -57.1319 -38.3704
252 1 -14.8726 -58.2979 -40.3899
253 1 -13.2097 -62.9617 -40.3899
254 1 -12.3795 -61.7957 -38.3704
255 1 -10.7363 -62.9617 -40.3899
256 1 -12.3992 -58.2979 -40.3899
257 1 -13.2108 -59.4638 -38.3704
258 1 -10.7374 -59.4638 -38.3704
259 1 -11.5676 -60.6298 -40.3899
260 1 -9.0942 -60.6298 -40.3899
261 1 -9.9061 -61.7957 -38.3704
262 1 -11.5691 -57.1319 -38.3704
263 1 -9.0957 -57.1319 -38.3704
264 1 -9.9259 -58.2979 -40.3899
265 1 -8.2630 -62.9617 -40.3899
266 1 -7.4327 -61.7957 -38.3704
267 1 -5.7896 -62.9617 -40.3899
268 1 -7.4525 -58.2979 -40.3899
269 1 -8.2640 -59.4638 -38.3704
270 1 -5.7907 -59.4638 -38.3704
271 1 -6.6209 -60.6298 -40.3899
272 1 -4.1475 -60.6298 -40.3899
273 1 -4.9594 -61.7957 -38.3704
274 1 -6.6223 -57.1319 -38.3704
275 1 -4.1490 -57.1319 -38.3704
276 1 -4.9791 -58.2979 -40.3899
277 1 -3.3162 -62.9617 -40.3899
278 1 -2.4860 -61.7957 -38.3704
279 1 -0.8429 -62.9617 -40.3899
280 1 -2.5058 -58.2979 -40.3899
281 1 -3.3173 -59.4638 -38.3704
282 1 -0.8439 -59.4638 -38.3704
283 1 -1.6741 -60.6298 -40.3899
284 1 0.7992 -60.6298 -40.3899
285 1 -0.0126 -61.7957 -38.3704
286 1 -1.6756 -57.1319 -38.3704
287 1 0.7978 -57.1319 -38.3704
288 1 -0.0324 -58.2979 -40.3899
289 1 1.6305 -62.9617 -40.3899
290 1 2.4607 -61.7957 -38.3704
291 1 4.1039 -62.9617 -40.3899
292 1 2.4410 -58.2979 -40.3899
293 1 1.6294 -59.4638 -38.3704
294 1 4.1028 -59.4638 -38.3704
295 1 3.2726 -60.6298 -40.3899
296 1 5.7460 -60.6298 -40.3899
297 1 4.9341 -61.7957 -38.3704
298 1 3.2711 -57.1319 -38.3704
299 1 5.7445 -57.1319 -38.3704
300 1 4.9143 -58.2979 -40.3899
301 1 6.5772 -62.9617 -40.3899
302 1 7.4075 -61.7957 -38.3704
303 1 9.0506 -62.9617 -40.3899
304 1 7.3877 -58.2979 -40.3899
305 1 6.5762 -59.4638 -38.3704
306 1 9.0496 -59.4638 -38.3704
307 1 8.2193 -60.6298 -40.3899
308 1 10.6927 -60.6298 -40.3899
309 1 9.8809 -61.7957 -38.3704
310 1 8.2179 -57.1319 -38.3704
311 1 10.6912 -57.1319 -38.3704
312 1 9.8611 -58.2979 -40.3899
313 1 11.5240 -62.9617 -40.3899
314 1 12.3542 -61.7957 -38.3704
315 1 13.9973 -62.9617 -40.3899
316 1 12.3344 -58.2979 -40.3899
317 1 11.5229 -59.4638 -38.3704
318 1 13.9963 -59.4638 -38.3704
319 1 13.1661 -60.6298 -40.3899
320 1 15.6394 -60.6298 -40.3899
321 1 14.8276 -61.7957 -38.3704
322 1 13.1646 -57.1319 -38.3704
323 1 15.6380 -57.1319 -38.3704
324 1 14.8078 -58.2979 -40.3899
325 1 16.4707 -62.9617 -40.3899
326 1 17.3010 -61.7957 -38.3704
327 1 18.9441 -62.9617 -40.3899
328 1 17.2812 -58.2979 -40.3899
329 1 16.4697 -59.4638 -38.3704
330 1 18.9430 -59.4638 -38.3704
331 1 18.1128 -60.6298 -40.3899
332 1 20.5862 -60.6298 -40.3899
333 1 19.7743 -61.7957 -38.3704
334 1 18.1113 -57.1319 -38.3704
335 1 20.5847 -57.1319 -38.3704
336 1 19.7546 -58.2979 -40.3899
337 1 21.4174 -62.9617 -40.3899
338 1 22.2477 -61.7957 -38.3704
339 1 23.8908 -62.9617 -40.3899
340 1 22.2279 -58.2979 -40.3899
341 1 21.4164 -59.4638 -38.3704
342 1 23.8898 -59.4638 -38.3704
343 1 23.0596 -60.6298 -40.3899
344 1 25.5329 -60.6298 -40.3899
345 1 24.7211 -61.7957 -38.3704
346 1 23.0581 -57.1319 -38.3704
347 1 25.5314 -57.1319 -38.3704
348 1 24.7013 -58.2979 -40.3899
349 1 26.3642 -62.9617 -40.3899
350 1 27.1944 -61.7957 -38.3704
351 1 28.8376 -62.9617 -40.3899
352 1 27.1747 -58.2979 -40.3899
353 1 26.3631 -59.4638 -38.3704
354 1 28.8365 -59.4638 -38.3704
355 1 28.0063 -60.6298 -40.3899
356 1 30.4797 -60.6298 -40.3899
357 1 29.6678 -61.7957 -38.3704
358 1 28.0048 -57.1319 -38.3704
359 1 30.4782 -57.1319 -38.3704
360 1 29.6480 -58.2979 -40.3899
361 1 31.3109 -62.9617 -40.3899
362 1 32.1412 -61.7957 -38.3704
363 1 33.7843 -62.9617 -40.3899
364 1 32.1214 -58.2979 -40.3899
365 1 31.3099 -59.4638 -38.3704
366 1 33.7832 -59.4638 -38.3704
367 1 32.9530 -60.6298 -40.3899
368 1 35.4264 -60.6298 -40.3899
369 1 34.6145 -61.7957 -38.3704
370 1 32.9516 -57.1319 -38.3704
371 1 35.4249 -57.1319 -38.3704
372 1 34.5948 -58.2979 -40.3899
373 1 36.2577 -62.9617 -40.3899
374 1 37.0879 -61.7957 -38.3704
375 1 38.7310 -62.9617 -40.3899
376 1 37.0681 -58.2979 -40.3899
377 1 36.2566 -59.4638 -38.3704
378 1 38.7300 -59.4638 -38.3704
379 1 37.8998 -60.6298 -40.3899
380 1 -38.7747 -60.6298 -40.3899
381 1 39.5613 -61.7957 -38.3704
382 1 37.8983 -57.1319 -38.3704
383 1 -38.7761 -57.1319 -38.3704
384 1 39.5415 -58.2979 -40.3899
385 1 -37.9650 -55.9659 -40.3899
386 1 -37.1349 -54.8000 -38.3704
387 1 -35.4916 -55.9659 -40.3899
388 1 -37.1570 -51.3021 -40.3899
389 1 -37.9674 -52.4681 -38.3704
390 1 -35.4941 -52.4681 -38.3704
391 1 -36.3240 -53.6340 -40.3899
392 1 -33.8507 -53.6340 -40.3899
393 1 -34.6615 -54.8000 -38.3704
394 1 -36.3271 -50.1362 -38.3704
395 1 -33.8537 -50.1362 -38.3704
396 1 -34.6836 -51.3021 -40.3899
397 1 -33.0182 -55.9659 -40.3899
398 1 -32.1881 -54.8000 -38.3704
399 1 -30.5448 -55.9659 -40.3899
400 1 -32.2102 -51.3021 -40.3899
401 1 -33.0207 -52.4681 -38.3704
402 1 -30.5473 -52.4681 -38.3704
403 1 -31.3773 -53.6340 -40.3899
404 1 -28.9039 -53.6340 -40.3899
405 1 -29.7148 -54.8000 -38.3704
406 1 -31.3804 -50.1362 -38.3704
407 1 -28.9070 -50.1362 -38.3704
408 1 -29.7369 -51.3021 -40.3899
409 1 -28.0715 -55.9659 -40.3899
410 1 -27.2414 -54.8000 -38.3704
411 1 -25.5981 -55.9659 -40.3899
412 1 -27.2635 -51.3021 -40.3899
413 1 -28.0740 -52.4681 -38.3704
414 1 -25.6006 -52.4681 -38.3704
415 1 -26.4306 -53.6340 -40.3899
416 1 -23.9572 -53.6340 -40.3899
417 1 -24.7680 -54.8000 -38.3704
418 1 -26.4336 -50.1362 -38.3704
419 1 -23.9603 -50.1362 -38.3704
420 1 -24.7901 -51.3021 -40.3899
421 1 -23.1247 -55.9659 -40.3899
422 1 -22.2947 -54.8000 -38.3704
423 1 -20.6514 -55.9659 -40.3899
424 1 -22.3167 -51.3021 -40.3899
425 1 -23.1272 -52.4681 -38.3704
426 1 -20.6539 -52.4681 -38.3704
427 1 -21.4838 -53.6340 -40.3899
428 1 -19.0105 -53.6340 -40.3899
429 1 -19.8213 -54.8000 -38.3704
430 1 -21.4869 -50.1362 -38.3704
431 1 -19.0135 -50.1362 -38.3704
432 1 -19.8434 -51.3021 -40.3899
433 1 -18.1780 -55.9659 -40.3899
434 1 -17.3479 -54.8000 -38.3704
435 1 -15.7046 -55.9659 -40.3899
436 1 -17.3700 -51.3021 -40.3899
437 1 -18.1805 -52.4681 -38.3704
438 1 -15.7071 -52.4681 -38.3704
439 1 -16.5371 -53.6340 -40.3899
440 1 -14.0637 -53.6340 -40.3899
441 1 -14.8746 -54.8000 -38.3704
442 1 -16.5402 -50.1362 -38.3704
443 1 -14.0668 -50.1362 -38.3704
444 1 -14.8966 -51.3021 -40.3899
445 1 -13.2313 -55.9659 -40.3899
446 1 -12.4012 -54.8000 -38.3704
447 1 -10.7579 -55.9659 -40.3899
448 1 -12.4233 -51.3021 -40.3899
449 1 -13.2337 -52.4681 -38.3704
450 1 -10.7604 -52.4681 -38.3704
451 1 -11.5904 -53.6340 -40.3899
452 1 -9.1170 -53.6340 -40.3899
453 1 -9.9278 -54.8000 -38.3704
454 1 -11.5934 -50.1362 -38.3704
455 1 -9.1200 -50.1362 -38.3704
456 1 -9.9499 -51.3021 -40.3899
457 1 -8.2845 -55.9659 -40.3899
458 1 -7.4545 -54.8000 -38.3704
459 1 -5.8112 -55.9659 -40.3899
460 1 -7.4765 -51.3021 -40.3899
461 1 -8.2870 -52.4681 -38.3704
462 1 -5.8136 -52.4681 -38.3704
463 1 -6.6436 -53.6340 -40.3899
464 1 -4.1703 -53.6340 -40.3899
465 1 -4.9811 -54.8000 -38.3704
466 1 -6.6467 -50.1362 -38.3704
467 1 -4.1733 -50.1362 -38.3704
468 1 -5.0032 -51.3021 -40.3899
469 1 -3.3378 -55.9659 -40.3899
470 1 -2.5077 -54.8000 -38.3704
471 1 -0.8644 -55.9659 -40.3899
472 1 -2.5298 -51.3021 -40.3899
473 1 -3.3403 -52.4681 -38.3704
474 1 -0.8669 -52.4681 -38.3704
475 1 -1.6969 -53.6340 -40.3899
476 1 0.7765 -53.6340 -40.3899
477 1 -0.0343 -54.8000 -38.3704
478 1 -1.6999 -50.1362 -38.3704
479 1 0.7734 -50.1362 -38.3704
480 1 -0.0564 -51.3021 -40.3899
481 1 1.6089 -55.9659 -40.3899
482 1 2.4390 -54.8000 -38.3704
483 1 4.0823 -55.9659 -40.3899
484 1 2.4169 -51.3021 -40.3899
485 1 1.6065 -52.4681 -38.3704
486 1 4.0798 -52.4681 -38.3704
487 1 3.2499 -53.6340 -40.3899
488 1 5.7232 -53.6340 -40.3899
489 1 4.9124 -54.8000 -38.3704
490 1 3.2468 -50.1362 -38.3704
491 1 5.7202 -50.1362 -38.3704
492 1 4.8903 -51.3021 -40.3899
493 1 6.5557 -55.9659 -40.3899
494 1 7.3858 -54.8000 -38.3704
495 1 9.0290 -55.9659 -40.3899
496 1 7.3637 -51.3021 -40.3899
497 1 6.5532 -52.4681 -38.3704
498 1 9.0266 -52.4681 -38.3704
499 1 8.1966 -53.6340 -40.3899
500 1 10.6700 -53.6340 -40.3899
501 1 9.8591 -54.8000 -38.3704
502 1 8.1935 -50.1362 -38.3704
503 1 10.6669 -50.1362 -38.3704
504 1 9.8370 -51.3021 -40.3899
505 1 11.5024 -55.9659 -40.3899
506 1 12.3325 -54.8000 -38.3704
507 1 13.9758 -55.9659 -40.3899
508 1 12.3104 -51.3021 -40.3899
509 1 11.4999 -52.4681 -38.3704
510 1 13.9733 -52.4681 -38.3704
511 1 13.1433 -53.6340 -40.3899
512 1 15.6167 -53.6340 -40.3899
513 1 14.8059 -54.8000 -38.3704
514 1 13.1403 -50.1362 -38.3704
515 1 15.6136 -50.1362 -38.3704
516 1 14.7838 -51.3021 -40.3899
517 1 16.4492 -55.9659 -40.3899
518 1 17.2792 -54.8000 -38.3704
519 1 18.9225 -55.9659 -40.3899
520 1 17.2572 -51.3021 -40.3899
521 1 16.4467 -52.4681 -38.3704
522 1 18.9200 -52.4681 -38.3704
523 1 18.0901 -53.6340 -40.3899
524 1 20.5634 -53.6340 -40.3899
525 1 19.7526 -54.8000 -38.3704
526 1 18.0870 -50.1362 -38.3704
527 1 20.5604 -50.1362 -38.3704
528 1 19.7305 -51.3021 -40.3899
529 1 21.3959 -55.9659 -40.3899
530 1 22.2260 -54.8000 -38.3704
531 1 23.8693 -55.9659 -40.3899
532 1 22.2039 -51.3021 -40.3899
533 1 21.3934 -52.4681 -38.3704
534 1 23.8668 -52.4681 -38.3704
535 1 23.0368 -53.6340 -40.3899
536 1 25.5102 -53.6340 -40.3899
537 1 24.6993 -54.8000 -38.3704
538 1 23.0337 -50.1362 -38.3704
539 1 25.5071 -50.1362 -38.3704
540 1 24.6773 -51.3021 -40.3899
541 1 26.3426 -55.9659 -40.3899
542 1 27.1727 -54.8000 -38.3704
543 1 28.8160 -55.9659 -40.3899
544 1 27.1506 -51.3021 -40.3899
545 1 26.3401 -52.4681 -38.3704
546 1 28.8135 -52.4681 -38.3704
547 1 27.9835 -53.6340 -40.3899
548 1 30.4569 -53.6340 -40.3899
549 1 29.6461 -54.8000 -38.3704
550 1 27.9805 -50.1362 -38.3704
551 1 30.4538 -50.1362 -38.3704
552 1 29.6240 -51.3021 -40.3899
553 1 31.2894 -55.9659 -40.3899
554 1 32.1194 -54.8000 -38.3704
555 1 33.7627 -55.9659 -40.3899
556 1 32.0974 -51.3021 -40.3899
557 1 31.2869 -52.4681 -38.3704
558 1 33.7603 -52.4681 -38.3704
559 1 32.9303 -53.6340 -40.3899
560 1 35.4036 -53.6340 -40.3899
561 1 34.5928 -54.8000 -38.3704
562 1 32.9272 -50.1362 -38.3704
563 1 35.4006 -50.1362 -38.3704
564 1 34.5707 -51.3021 -40.3899
565 1 36.2361 -55.9659 -40.3899
566 1 37.0662 -54.8000 -38.3704
567 1 38.7095 -55.9659 -40.3899
568 1 37.0441 -51.3021 -40.3899
569 1 36.2336 -52.4681 -38.3704
570 1 38.7070 -52.4681 -38.3704
571 1 37.8770 -53.6340 -40.3899
572 1 -38.7974 -53.6340 -40.3899
573 1 39.5395 -54.8000 -38.3704
574 1 37.8740 -50.1362 -38.3704
575 1 -38.8005 -50.1362 -38.3704
576 1 39.5175 -51.3021 -40.3899
577 1 -37.9904 -48.9702 -40.3899
578 1 -37.1607 -47.8042 -38.3704
579 1 -35.5170 -48.9702 -40.3899
580 1 -37.1854 -44.3064 -40.3899
581 1 -37.9948 -45.4723 -38.3704
582 1 -35.5214 -45.4723 -38.3704
583 1 -36.3509 -46.6383 -40.3899
584 1 -33.8775 -46.6383 -40.3899
585 1 -34.6873 -47.8042 -38.3704
586 1 -36.3561 -43.1404 -38.3704
587 1 -33.8828 -43.1404 -38.3704
588 1 -34.7120 -44.3064 -40.3899
589 1 -33.0436 -48.9702 -40.3899
590 1 -32.2139 -47.8042 -38.3704
591 1 -30.5703 -48.9702 -40.3899
592 1 -32.2387 -44.3064 -40.3899
593 1 -33.0480 -45.4723 -38.3704
594 1 -30.5747 -45.4723 -38.3704
595 1 -31.4042 -46.6383 -40.3899
596 1 -28.9308 -46.6383 -40.3899
597 1 -29.7406 -47.8042 -38.3704
598 1 -31.4094 -43.1404 -38.3704
599 1 -28.9360 -43.1404 -38.3704
600 1 -29.7653 -44.3064 -40.3899
601 1 -28.0969 -48.9702 -40.3899
602 1 -27.2672 -47.8042 -38.3704
603 1 -25.6235 -48.9702 -40.3899
604 1 -27.2919 -44.3064 -40.3899
605 1 -28.1013 -45.4723 -38.3704
606 1 -25.6279 -45.4723 -38.3704
607 1 -26.4574 -46.6383 -40.3899
608 1 -23.9841 -46.6383 -40.3899
609 1 -24.7938 -47.8042 -38.3704
610 1 -26.4626 -43.1404 -38.3704
611 1 -23.9893 -43.1404 -38.3704
612 1 -24.8186 -44.3064 -40.3899
613 1 -23.1501 -48.9702 -40.3899
614 1 -22.3205 -47.8042 -38.3704
615 1 -20.6768 -48.9702 -40.3899
616 1 -22.3452 -44.3064 -40.3899
617 1 -23.1546 -45.4723 -38.3704
618 1 -20.6812 -45.4723 -38.3704
619 1 -21.5107 -46.6383 -40.3899
620 1 -19.0373 -46.6383 -40.3899
621 1 -19.8471 -47.8042 -38.3704
622 1 -21.5159 -43.1404 -38.3704
623 1 -19.0425 -43.1404 -38.3704
624 1 -19.8718 -44.3064 -40.3899
625 1 -18.2034 -48.9702 -40.3899
626 1 -17.3737 -47.8042 -38.3704
627 1 -15.7300 -48.9702 -40.3899
628 1 -17.3984 -44.3064 -40.3899
629 1 -18.2078 -45.4723 -38.3704
630 1 -15.7345 -45.4723 -38.3704
631 1 -16.5640 -46.6383 -40.3899
632 1 -14.0906 -46.6383 -40.3899
633 1 -14.9003 -47.8042 -38.3704
634 1 -16.5692 -43.1404 -38.3704
635 1 -14.0958 -43.1404 -38.3704
636 1 -14.9251 -44.3064 -40.3899
637 1 -13.2567 -48.9702 -40.3899
638 1 -12.4270 -47.8042 -38.3704
639 1 -10.7833 -48.9702 -40.3899
640 1 -12.4517 -44.3064 -40.3899
641 1 -13.2611 -45.4723 -38.3704
642 1 -10.7877 -45.4723 -38.3704
643 1 -11.6172 -46.6383 -40.3899
644 1 -9.1439 -46.6383 -40.3899
645 1 -9.9536 -47.8042 -38.3704
646 1 -11.6224 -43.1404 -38.3704
647 1 -9.1491 -43.1404 -38.3704
648 1 -9.9783 -44.3064 -40.3899
649 1 -8.3099 -48.9702 -40.3899
650 1 -7.4802 -47.8042 -38.3704
651 1 -5.8366 -48.9702 -40.3899
652 1 -7.5050 -44.3064 -40.3899
653 1 -8.3144 -45.4723 -38.3704
654 1 -5.8410 -45.4723 -38.3704
655 1 -6.6705 -46.6383 -40.3899
656 1 -4.1971 -46.6383 -40.3899
657 1 -5.0069 -47.8042 -38.3704
658 1 -6.6757 -43.1404 -38.3704
659 1 -4.2023 -43.1404 -38.3704
660 1 -5.0316 -44.3064 -40.3899
661 1 -3.3632 -48.9702 -40.3899
662 1 -2.5335 -47.8042 -38.3704
663 1 -0.8898 -48.9702 -40.3899
664 1 -2.5582 -44.3064 -40.3899
665 1 -3.3676 -45.4723 -38.3704
666 1 -0.8942 -45.4723 -38.3704
667 1 -1.7238 -46.6383 -40.3899
668 1 0.7496 -46.6383 -40.3899
669 1 -0.0601 -47.8042 -38.3704
670 1 -1.7290 -43.1404 -38.3704
671 1 0.7444 -43.1404 -38.3704
672 1 -0.0849 -44.3064 -40.3899
673 1 1.5835 -48.9702 -40.3899
674 1 2.4132 -47.8042 -38.3704
675 1 4.0569 -48.9702 -40.3899
676 1 2.3885 -44.3064 -40.3899
677 1 1.5791 -45.4723 -38.3704
678 1 4.0525 -45.4723 -38.3704
679 1 3.2230 -46.6383 -40.3899
680 1 5.6964 -46.6383 -40.3899
681 1 4.8866 -47.8042 -38.3704
682 1 3.2178 -43.1404 -38.3704
683 1 5.6911 -43.1404 -38.3704
684 1 4.8619 -44.3064 -40.3899
685 1 6.5303 -48.9702 -40.3899
686 1 7.3600 -47.8042 -38.3704
687 1 9.0036 -48.9702 -40.3899
688 1 7.3352 -44.3064 -40.3899
689 1 6.5259 -45.4723 -38.3704
690 1 8.9992 -45.4723 -38.3704
691 1 8.1697 -46.6383 -40.3899
692 1 10.6431 -46.6383 -40.3899
693 1 9.8333 -47.8042 -38.3704
694 1 8.1645 -43.1404 -38.3704
695 1 10.6379 -43.1404 -38.3704
696 1 9.8086 -44.3064 -40.3899
697 1 11.4770 -48.9702 -40.3899
698 1 12.3067 -47.8042 -38.3704
699 1 13.9504 -48.9702 -40.3899
700 1 12.2820 -44.3064 -40.3899
701 1 11.4726 -45.4723 -38.3704
702 1 13.9460 -45.4723 -38.3704
703 1 13.1165 -46.6383 -40.3899
704 1 15.5898 -46.6383 -40.3899
705 1 14.7801 -47.8042 -38.3704
706 1 13.1113 -43.1404 -38.3704
707 1 15.5846 -43.1404 -38.3704
708 1 14.7553 -44.3064 -40.3899
709 1 16.4237 -48.9702 -40.3899
710 1 17.2534 -47.8042 -38.3704
711 1 18.8971 -48.9702 -40.3899
712 1 17.2287 -44.3064 -40.3899
713 1 16.4193 -45.4723 -38.3704
714 1 18.8927 -45.4723 -38.3704
715 1 18.0632 -46.6383 -40.3899
716 1 20.5366 -46.6383 -40.3899
717 1 19.7268 -47.8042 -38.3704
718 1 18.0580 -43.1404 -38.3704
719 1 20.5314 -43.1404 -38.3704
720 1 19.7021 -44.3064 -40.3899
721 1 21.3705 -48.9702 -40.3899
722 1 22.2002 -47.8042 -38.3704
723 1 23.8439 -48.9702 -40.3899
724 1 22.1754 -44.3064 -40.3899
725 1 21.3661 -45.4723 -38.3704
726 1 23.8394 -45.4723 -38.3704
727 1 23.0099 -46.6383 -40.3899
728 1 25.4833 -46.6383 -40.3899
729 1 24.6736 -47.8042 -38.3704
730 1 23.0047 -43.1404 -38.3704
731 1 25.4781 -43.1404 -38.3704
732 1 24.6488 -44.3064 -40.3899
733 1 26.3172 -48.9702 -40.3899
734 1 27.1469 -47.8042 -38.3704
735 1 28.7906 -48.9702 -40.3899
736 1 27.1222 -44.3064 -40.3899
737 1 26.3128 -45.4723 -38.3704
738 1 28.7862 -45.4723 -38.3704
739 1 27.9567 -46.6383 -40.3899
740 1 30.4300 -46.6383 -40.3899
741 1 29.6203 -47.8042 -38.3704
742 1 27.9515 -43.1404 -38.3704
743 1 30.4248 -43.1404 -38.3704
744 1 29.5956 -44.3064 -40.3899
745 1 31.2640 -48.9702 -40.3899
746 1 32.0937 -47.8042 -38.3704
747 1 33.7373 -48.9702 -40.3899
748 1 32.0689 -44.3064 -40.3899
749 1 31.2595 -45.4723 -38.3704
750 1 33.7329 -45.4723 -38.3704
751 1 32.9034 -46.6383 -40.3899
752 1 35.3768 -46.6383 -40.3899
753 1 34.5670 -47.8042 -38.3704
754 1 32.8982 -43.1404 -38.3704
755 1 35.3716 -43.1404 -38.3704
756 1 34.5423 -44.3064 -40.3899
757 1 36.2107 -48.9702 -40.3899
758 1 37.0404 -47.8042 -38.3704
759 1 38.6841 -48.9702 -40.3899
760 1 37.0157 -44.3064 -40.3899
761 1 36.2063 -45.4723 -38.3704
762 1 38.6796 -45.4723 -38.3704
763 1 37.8501 -46.6383 -40.3899
764 1 -38.8243 -46.6383 -40.3899
765 1 39.5138 -47.8042 -38.3704
766 1 37.8449 -43.1404 -38.3704
767 1 -38.8295 -43.1404 -38.3704
768 1 39.4890 -44.3064 -40.3899
769 1 -38.0205 -41.9745 -40.3899
770 1 -37.1915 -40.8085 -38.3704
771 1 -35.5471 -41.9745 -40.3899
772 1 -37.2192 -37.3106 -40.3899
773 1 -38.0275 -38.4766 -38.3704
774 1 -35.5541 -38.4766 -38.3704
775 1 -36.3828 -39.6425 -40.3899
776 1 -33.9094 -39.6425 -40.3899
777 1 -34.7181 -40.8085 -38.3704
778 1 -36.3909 -36.1447 -38.3704
779 1 -33.9175 -36.1447 -38.3704
780 1 -34.7458 -37.3106 -40.3899
781 1 -33.0737 -41.9745 -40.3899
782 1 -32.2447 -40.8085 -38.3704
783 1 -30.6004 -41.9745 -40.3899
784 1 -32.2724 -37.3106 -40.3899
785 1 -33.0808 -38.4766 -38.3704
786 1 -30.6074 -38.4766 -38.3704
787 1 -31.4361 -39.6425 -40.3899
788 1 -28.9627 -39.6425 -40.3899
789 1 -29.7714 -40.8085 -38.3704
790 1 -31.4441 -36.1447 -38.3704
791 1 -28.9708 -36.1447 -38.3704
792 1 -29.7991 -37.3106 -40.3899
793 1 -28.1270 -41.9745 -40.3899
794 1 -27.2980 -40.8085 -38.3704
795 1 -25.6536 -41.9745 -40.3899
796 1 -27.3257 -37.3106 -40.3899
797 1 -28.1340 -38.4766 -38.3704
798 1 -25.6607 -38.4766 -38.3704
799 1 -26.4893 -39.6425 -40.3899
800 1 -24.0160 -39.6425 -40.3899
801 1 -24.8246 -40.8085 -38.3704
802 1 -26.4974 -36.1447 -38.3704
803 1 -24.0240 -36.1447 -38.3704
804 1 -24.8523 -37.3106 -40.3899
805 1 -23.1803 -41.9745 -40.3899
806 1 -22.3513 -40.8085 -38.3704
807 1 -20.7069 -41.9745 -40.3899
808 1 -22.3790 -37.3106 -40.3899
809 1 -23.1873 -38.4766 -38.3704
810 1 -20.7139 -38.4766 -38.3704
811 1 -21.5426 -39.6425 -40.3899
812 1 -19.0692 -39.6425 -40.3899
813 1 -19.8779 -40.8085 -38.3704
814 1 -21.5507 -36.1447 -38.3704
815 1 -19.0773 -36.1447 -38.3704
816 1 -19.9056 -37.3106 -40.3899
817 1 -18.2335 -41.9745 -40.3899
818 1 -17.4045 -40.8085 -38.3704
819 1 -15.7602 -41.9745 -40.3899
820 1 -17.4322 -37.3106 -40.3899
821 1 -18.2405 -38.4766 -38.3704
822 1 -15.7672 -38.4766 -38.3704
823 1 -16.5959 -39.6425 -40.3899
824 1 -14.1225 -39.6425 -40.3899
825 1 -14.9312 -40.8085 -38.3704
826 1 -16.6039 -36.1447 -38.3704
827 1 -14.1306 -36.1447 -38.3704
828 1 -14.9589 -37.3106 -40.3899
829 1 -13.2868 -41.9745 -40.3899
830 1 -12.4578 -40.8085 -38.3704
831 1 -10.8134 -41.9745 -40.3899
832 1 -12.4855 -37.3106 -40.3899
833 1 -13.2938 -38.4766 -38.3704
834 1 -10.8204 -38.4766 -38.3704
835 1 -11.6491 -39.6425 -40.3899
836 1 -9.1758 -39.6425 -40.3899
837 1 -9.9844 -40.8085 -38.3704
838 1 -11.6572 -36.1447 -38.3704
839 1 -9.1838 -36.1447 -38.3704
840 1 -10.0121 -37.3106 -40.3899
841 1 -8.3400 -41.9745 -40.3899
842 1 -7.5110 -40.8085 -38.3704
843 1 -5.8667 -41.9745 -40.3899
844 1 -7.5388 -37.3106 -40.3899
845 1 -8.3471 -38.4766 -38.3704
846 1 -5.8737 -38.4766 -38.3704
847 1 -6.7024 -39.6425 -40.3899
848 1 -4.2290 -39.6425 -40.3899
849 1 -5.0377 -40.8085 -38.3704
850 1 -6.7105 -36.1447 -38.3704
851 1 -4.2371 -36.1447 -38.3704
852 1 -5.0654 -37.3106 -40.3899
853 1 -3.3933 -41.9745 -40.3899
854 1 -2.5643 -40.8085 -38.3704
855 1 -0.9199 -41.9745 -40.3899
856 1 -2.5920 -37.3106 -40.3899
857 1 -3.4003 -38.4766 -38.3704
858 1 -0.9270 -38.4766 -38.3704
859 1 -1.7556 -39.6425 -40.3899
860 1 0.7177 -39.6425 -40.3899
861 1 -0.0909 -40.8085 -38.3704
862 1 -1.7637 -36.1447 -38.3704
863 1 0.7096 -36.1447 -38.3704
864 1 -0.1186 -37.3106 -40.3899
865 1 1.5534 -41.9745 -40.3899
866 1 2.3824 -40.8085 -38.3704
867 1 4.0268 -41.9745 -40.3899
868 1 2.3547 -37.3106 -40.3899
869 1 1.5464 -38.4766 -38.3704
870 1 4.0198 -38.4766 -38.3704
871 1 3.1911 -39.6425 -40.3899
872 1 5.6645 -39.6425 -40.3899
873 1 4.8558 -40.8085 -38.3704
874 1 3.1830 -36.1447 -38.3704
875 1 5.6564 -36.1447 -38.3704
876 1 4.8281 -37.3106 -40.3899
877 1 6.5002 -41.9745 -40.3899
878 1 7.3292 -40.8085 -38.3704
879 1 8.9735 -41.9745 -40.3899
880 1 7.3015 -37.3106 -40.3899
881 1 6.4931 -38.4766 -38.3704
882 1 8.9665 -38.4766 -38.3704
883 1 8.1378 -39.6425 -40.3899
884 1 10.6112 -39.6425 -40.3899
885 1 9.8025 -40.8085 -38.3704
886 1 8.1297 -36.1447 -38.3704
887 1 10.6031 -36.1447 -38.3704
888 1 9.7748 -37.3106 -40.3899
889 1 11.4469 -41.9745 -40.3899
890 1 12.2759 -40.8085 -38.3704
891 1 13.9203 -41.9745 -40.3899
892 1 12.2482 -37.3106 -40.3899
893 1 11.4399 -38.4766 -38.3704
894 1 13.9132 -38.4766 -38.3704
895 1 13.0846 -39.6425 -40.3899
896 1 15.5579 -39.6425 -40.3899
897 1 14.7493 -40.8085 -38.3704
898 1 13.0765 -36.1447 -38.3704
899 1 15.5499 -36.1447 -38.3704
900 1 14.7216 -37.3106 -40.3899
901 1 16.3936 -41.9745 -40.3899
902 1 17.2226 -40.8085 -38.3704
903 1 18.8670 -41.9745 -40.3899
904 1 17.1949 -37.3106 -40.3899
905 1 16.3866 -38.4766 -38.3704
906 1 18.8600 -38.4766 -38.3704
907 1 18.0313 -39.6425 -40.3899
908 1 20.5047 -39.6425 -40.3899
909 1 19.6960 -40.8085 -38.3704
910 1 18.0232 -36.1447 -38.3704
911 1 20.4966 -36.1447 -38.3704
912 1 19.6683 -37.3106 -40.3899
913 1 21.3404 -41.9745 -40.3899
914 1 22.1694 -40.8085 -38.3704
915 1 23.8137 -41.9745 -40.3899
916 1 22.1417 -37.3106 -40.3899
917 1 21.3333 -38.4766 -38.3704
918 1 23.8067 -38.4766 -38.3704
919 1 22.9780 -39.6425 -40.3899
920 1 25.4514 -39.6425 -40.3899
921 1 24.6427 -40.8085 -38.3704
922 1 22.9700 -36.1447 -38.3704
923 1 25.4433 -36.1447 -38.3704
924 1 24.6150 -37.3106 -40.3899
925 1 26.2871 -41.9745 -40.3899
926 1 27.1161 -40.8085 -38.3704
927 1 28.7605 -41.9745 -40.3899