ITEM: TIMESTEP
0
ITEM: NUMBER OF ATOMS
48
ITEM: BOX BOUNDS pp pp ss
-4.94674 4.94674
0.00000 6.99574
0.00000 8.07799
ITEM: ATOMS id type x y z
1 1 -4.9467 0.0000 0.0000
2 1 -4.1223 1.1660 2.0195
3 1 -2.4734 0.0000 0.0000
4 1 -4.1223 4.6638 0.0000
5 1 -4.9467 3.4979 2.0195
6 1 -2.4734 3.4979 2.0195
7 1 -3.2978 2.3319 0.0000
8 1 -0.8245 2.3319 0.0000
9 1 -1.6489 1.1660 2.0195
10 1 -3.2978 5.8298 2.0195
11 1 -0.8245 5.8298 2.0195
12 1 -1.6489 4.6638 0.0000
13 1 0.0000 0.0000 0.0000
14 1 0.8245 1.1660 2.0195
15 1 2.4734 0.0000 0.0000
16 1 0.8245 4.6638 0.0000
17 1 0.0000 3.4979 2.0195
18 1 2.4734 3.4979 2.0195
19 1 1.6489 2.3319 0.0000
20 1 4.1223 2.3319 0.0000
21 1 3.2978 1.1660 2.0195
22 1 1.6489 5.8298 2.0195
23 1 4.1223 5.8298 2.0195
24 1 3.2978 4.6638 0.0000
25 1 -4.9467 0.0000 4.0390
26 1 -4.1223 1.1660 6.0585
27 1 -2.4734 0.0000 4.0390
28 1 -4.1223 4.6638 4.0390
29 1 -4.9467 3.4979 6.0585
30 1 -2.4734 3.4979 6.0585
31 1 -3.2978 2.3319 4.0390
32 1 -0.8245 2.3319 4.0390
33 1 -1.6489 1.1660 6.0585
34 1 -3.2978 5.8298 6.0585
35 1 -0.8245 5.8298 6.0585
36 1 -1.6489 4.6638 4.0390
37 1 0.0000 0.0000 4.0390
38 1 0.8245 1.1660 6.0585
39 1 2.4734 0.0000 4.0390
40 1 0.8245 4.6638 4.0390
41 1 0.0000 3.4979 6.0585
42 1 2.4734 3.4979 6.0585
43 1 1.6489 2.3319 4.0390
44 1 4.1223 2.3319 4.0390
45 1 3.2978 1.1660 6.0585
46 1 1.6489 5.8298 6.0585
47 1 4.1223 5.8298 6.0585
48 1 3.2978 4.6638 4.0390