ITEM: TIMESTEP
0
ITEM: NUMBER OF ATOMS
496
ITEM: BOX BOUNDS pp pp ff
-25.8729592 24.2559013
-20.6719208 20.6719208
-22.4066391 22.4066391
ITEM: ATOMS id x y z
1444 -24.2019997 -18.0879002 -0.9336
1448 -20.8600998 -18.0879002 -0.9336
1452 -17.5181008 -18.0879002 -0.9336
1456 -14.1761999 -18.0879002 -0.9336
1460 -10.8343001 -18.0879002 -0.9336
1464 -7.4924002 -18.0879002 -0.9336
1468 -4.1504998 -18.0879002 -0.9336
1472 -0.8085 -18.0879002 -0.9336
1476 2.5334001 -18.0879002 -0.9336
1480 5.8753 -18.0879002 -0.9336
1484 9.2172003 -18.0879002 -0.9336
1488 12.5592003 -18.0879002 -0.9336
1492 15.9011002 -18.0879002 -0.9336
1496 19.243 -18.0879002 -0.9336
1500 22.5848999 -18.0879002 -0.9336
1504 -24.2019997 -12.9200002 -0.9336
1508 -20.8600998 -12.9200002 -0.9336
1512 -17.5181008 -12.9200002 -0.9336
1516 -14.1761999 -12.9200002 -0.9336
1520 -10.8343001 -12.9200002 -0.9336
1524 -7.4924002 -12.9200002 -0.9336
1528 -4.1504998 -12.9200002 -0.9336
1532 -0.8085 -12.9200002 -0.9336
1536 2.5334001 -12.9200002 -0.9336
1540 5.8753 -12.9200002 -0.9336
1544 9.2172003 -12.9200002 -0.9336
1548 12.5592003 -12.9200002 -0.9336
1552 15.9011002 -12.9200002 -0.9336
1556 19.243 -12.9200002 -0.9336
1560 22.5848999 -12.9200002 -0.9336
1564 -24.2019997 -7.7519999 -0.9336
1568 -20.8600998 -7.7519999 -0.9336
1572 -17.5181008 -7.7519999 -0.9336
1576 -14.1761999 -7.7519999 -0.9336
1580 -10.8343001 -7.7519999 -0.9336
1584 -7.4924002 -7.7519999 -0.9336
1588 -4.1504998 -7.7519999 -0.9336
1592 -0.8085 -7.7519999 -0.9336
1596 2.5334001 -7.7519999 -0.9336
1600 5.8753 -7.7519999 -0.9336
1604 9.2172003 -7.7519999 -0.9336
1608 12.5592003 -7.7519999 -0.9336
1612 15.9011002 -7.7519999 -0.9336
1616 19.243 -7.7519999 -0.9336
1620 22.5848999 -7.7519999 -0.9336
1624 -24.2019997 -2.5840001 -0.9336
1628 -20.8600998 -2.5840001 -0.9336
1632 -17.5181008 -2.5840001 -0.9336
1636 -14.1761999 -2.5840001 -0.9336
1640 -10.8343001 -2.5840001 -0.9336
1644 -7.4924002 -2.5840001 -0.9336
1648 -4.1504998 -2.5840001 -0.9336
1652 -0.8085 -2.5840001 -0.9336
1656 2.5334001 -2.5840001 -0.9336
1660 5.8753 -2.5840001 -0.9336
1664 9.2172003 -2.5840001 -0.9336
1668 12.5592003 -2.5840001 -0.9336
1672 15.9011002 -2.5840001 -0.9336
1676 19.243 -2.5840001 -0.9336
1680 22.5848999 -2.5840001 -0.9336
1684 -24.2019997 2.5840001 -0.9336
1688 -20.8600998 2.5840001 -0.9336
1692 -17.5181008 2.5840001 -0.9336
1696 -14.1761999 2.5840001 -0.9336
1700 -10.8343001 2.5840001 -0.9336
1704 -7.4924002 2.5840001 -0.9336
1708 -4.1504998 2.5840001 -0.9336
1712 -0.8085 2.5840001 -0.9336
1716 2.5334001 2.5840001 -0.9336
1720 5.8753 2.5840001 -0.9336
1724 9.2172003 2.5840001 -0.9336
1728 12.5592003 2.5840001 -0.9336
1732 15.9011002 2.5840001 -0.9336
1736 19.243 2.5840001 -0.9336
1740 22.5848999 2.5840001 -0.9336
1744 -24.2019997 7.7519999 -0.9336
1748 -20.8600998 7.7519999 -0.9336
1752 -17.5181008 7.7519999 -0.9336
1756 -14.1761999 7.7519999 -0.9336
1760 -10.8343001 7.7519999 -0.9336
1764 -7.4924002 7.7519999 -0.9336
1768 -4.1504998 7.7519999 -0.9336
1772 -0.8085 7.7519999 -0.9336
1776 2.5334001 7.7519999 -0.9336
1780 5.8753 7.7519999 -0.9336
1784 9.2172003 7.7519999 -0.9336
1788 12.5592003 7.7519999 -0.9336
1792 15.9011002 7.7519999 -0.9336
1796 19.243 7.7519999 -0.9336
1800 22.5848999 7.7519999 -0.9336
1804 -24.2019997 12.9200002 -0.9336
1808 -20.8600998 12.9200002 -0.9336
1812 -17.5181008 12.9200002 -0.9336
1816 -14.1761999 12.9200002 -0.9336
1820 -10.8343001 12.9200002 -0.9336
1824 -7.4924002 12.9200002 -0.9336
1828 -4.1504998 12.9200002 -0.9336
1832 -0.8085 12.9200002 -0.9336
1836 2.5334001 12.9200002 -0.9336
1840 5.8753 12.9200002 -0.9336
1844 9.2172003 12.9200002 -0.9336
1848 12.5592003 12.9200002 -0.9336
1852 15.9011002 12.9200002 -0.9336
1856 19.243 12.9200002 -0.9336
1860 22.5848999 12.9200002 -0.9336
1864 -24.2019997 18.0879002 -0.9336
1868 -20.8600998 18.0879002 -0.9336
1872 -17.5181008 18.0879002 -0.9336
1876 -14.1761999 18.0879002 -0.9336
1880 -10.8343001 18.0879002 -0.9336
1884 -7.4924002 18.0879002 -0.9336
1888 -4.1504998 18.0879002 -0.9336
1892 -0.8085 18.0879002 -0.9336
1896 2.5334001 18.0879002 -0.9336
1900 5.8753 18.0879002 -0.9336
1904 9.2172003 18.0879002 -0.9336
1908 12.5592003 18.0879002 -0.9336
1912 15.9011002 18.0879002 -0.9336
1916 19.243 18.0879002 -0.9336
1920 22.5848999 18.0879002 -0.9336
1921 -25.8729992 -20.6718998 0.0
1922 -25.8729992 -18.0879002 1.8672
1923 -24.3064003 -20.6718998 2.8008001
1925 -22.5310002 -20.6718998 0.0
1926 -22.7399006 -18.0879002 1.8672
1927 -21.1734009 -20.6718998 2.8008001
1929 -19.1891003 -20.6718998 0.0
1930 -19.6068993 -18.0879002 1.8672
1931 -18.0403004 -20.6718998 2.8008001
1933 -15.8472004 -20.6718998 0.0
1934 -16.4738007 -18.0879002 1.8672
1935 -14.9073 -20.6718998 2.8008001
1937 -12.5052996 -20.6718998 0.0
1938 -13.3407002 -18.0879002 1.8672
1939 -11.7742005 -20.6718998 2.8008001
1941 -9.1632996 -20.6718998 0.0
1942 -10.2076998 -18.0879002 1.8672
1943 -8.6412001 -20.6718998 2.8008001
1945 -5.8214002 -20.6718998 0.0
1946 -7.0746002 -18.0879002 1.8672
1947 -5.5081001 -20.6718998 2.8008001
1949 -2.4795001 -20.6718998 0.0
1950 -3.9416002 -18.0879002 1.8672
1951 -2.3750999 -20.6718998 2.8008001
1953 0.8624 -20.6718998 0.0
1954 -0.8085 -18.0879002 1.8672
1955 0.758 -20.6718998 2.8008001
1957 4.2044001 -20.6718998 0.0
1958 2.3245001 -18.0879002 1.8672
1959 3.8911 -20.6718998 2.8008001
1961 7.5463 -20.6718998 0.0
1962 5.4576001 -18.0879002 1.8672
1963 7.0240998 -20.6718998 2.8008001
1965 10.8881998 -20.6718998 0.0
1966 8.5906 -18.0879002 1.8672
1967 10.1571999 -20.6718998 2.8008001
1969 14.2300997 -20.6718998 0.0
1970 11.7236996 -18.0879002 1.8672
1971 13.2902002 -20.6718998 2.8008001
1973 17.5720997 -20.6718998 0.0
1974 14.8567 -18.0879002 1.8672
1975 16.4232998 -20.6718998 2.8008001
1977 20.9139996 -20.6718998 0.0
1978 17.9897996 -18.0879002 1.8672
1979 19.5562992 -20.6718998 2.8008001
1981 21.1228008 -18.0879002 1.8672
1982 22.6893997 -20.6718998 2.8008001
1984 -25.8729992 -15.5038996 0.0
1985 -25.8729992 -12.9200002 1.8672
1986 -24.3064003 -15.5038996 2.8008001
1988 -22.5310002 -15.5038996 0.0
1989 -22.7399006 -12.9200002 1.8672
1990 -21.1734009 -15.5038996 2.8008001
1992 -19.1891003 -15.5038996 0.0
1993 -19.6068993 -12.9200002 1.8672
1994 -18.0403004 -15.5038996 2.8008001
1996 -15.8472004 -15.5038996 0.0
1997 -16.4738007 -12.9200002 1.8672
1998 -14.9073 -15.5038996 2.8008001
2000 -12.5052996 -15.5038996 0.0
2001 -13.3407002 -12.9200002 1.8672
2002 -11.7742005 -15.5038996 2.8008001
2004 -9.1632996 -15.5038996 0.0
2005 -10.2076998 -12.9200002 1.8672
2006 -8.6412001 -15.5038996 2.8008001
2008 -5.8214002 -15.5038996 0.0
2009 -7.0746002 -12.9200002 1.8672
2010 -5.5081001 -15.5038996 2.8008001
2012 -2.4795001 -15.5038996 0.0
2013 -3.9416002 -12.9200002 1.8672
2014 -2.3750999 -15.5038996 2.8008001
2016 0.8624 -15.5038996 0.0
2017 -0.8085 -12.9200002 1.8672
2018 0.758 -15.5038996 2.8008001
2020 4.2044001 -15.5038996 0.0
2021 2.3245001 -12.9200002 1.8672
2022 3.8911 -15.5038996 2.8008001
2024 7.5463 -15.5038996 0.0
2025 5.4576001 -12.9200002 1.8672
2026 7.0240998 -15.5038996 2.8008001
2028 10.8881998 -15.5038996 0.0
2029 8.5906 -12.9200002 1.8672
2030 10.1571999 -15.5038996 2.8008001
2032 14.2300997 -15.5038996 0.0
2033 11.7236996 -12.9200002 1.8672
2034 13.2902002 -15.5038996 2.8008001
2036 17.5720997 -15.5038996 0.0
2037 14.8567 -12.9200002 1.8672
2038 16.4232998 -15.5038996 2.8008001
2040 20.9139996 -15.5038996 0.0
2041 17.9897996 -12.9200002 1.8672
2042 19.5562992 -15.5038996 2.8008001
2044 21.1228008 -12.9200002 1.8672
2045 22.6893997 -15.5038996 2.8008001
2047 -25.8729992 -10.3360005 0.0
2048 -25.8729992 -7.7519999 1.8672
2049 -24.3064003 -10.3360005 2.8008001
2051 -22.5310002 -10.3360005 0.0
2052 -22.7399006 -7.7519999 1.8672
2053 -21.1734009 -10.3360005 2.8008001
2055 -19.1891003 -10.3360005 0.0
2056 -19.6068993 -7.7519999 1.8672
2057 -18.0403004 -10.3360005 2.8008001
2059 -15.8472004 -10.3360005 0.0
2060 -16.4738007 -7.7519999 1.8672
2061 -14.9073 -10.3360005 2.8008001
2063 -12.5052996 -10.3360005 0.0
2064 -13.3407002 -7.7519999 1.8672
2065 -11.7742005 -10.3360005 2.8008001
2067 -9.1632996 -10.3360005 0.0
2068 -10.2076998 -7.7519999 1.8672
2069 -8.6412001 -10.3360005 2.8008001
2071 -5.8214002 -10.3360005 0.0
2072 -7.0746002 -7.7519999 1.8672
2073 -5.5081001 -10.3360005 2.8008001
2075 -2.4795001 -10.3360005 0.0
2076 -3.9416002 -7.7519999 1.8672
2077 -2.3750999 -10.3360005 2.8008001
2079 0.8624 -10.3360005 0.0
2080 -0.8085 -7.7519999 1.8672
2081 0.758 -10.3360005 2.8008001
2083 4.2044001 -10.3360005 0.0
2084 2.3245001 -7.7519999 1.8672
2085 3.8911 -10.3360005 2.8008001
2087 7.5463 -10.3360005 0.0
2088 5.4576001 -7.7519999 1.8672
2089 7.0240998 -10.3360005 2.8008001
2091 10.8881998 -10.3360005 0.0
2092 8.5906 -7.7519999 1.8672
2093 10.1571999 -10.3360005 2.8008001
2095 14.2300997 -10.3360005 0.0
2096 11.7236996 -7.7519999 1.8672
2097 13.2902002 -10.3360005 2.8008001
2099 17.5720997 -10.3360005 0.0
2100 14.8567 -7.7519999 1.8672
2101 16.4232998 -10.3360005 2.8008001
2103 20.9139996 -10.3360005 0.0
2104 17.9897996 -7.7519999 1.8672
2105 19.5562992 -10.3360005 2.8008001
2107 21.1228008 -7.7519999 1.8672
2108 22.6893997 -10.3360005 2.8008001
2110 -25.8729992 -5.1680002 0.0
2111 -25.8729992 -2.5840001 1.8672
2112 -24.3064003 -5.1680002 2.8008001
2114 -22.5310002 -5.1680002 0.0
2115 -22.7399006 -2.5840001 1.8672
2116 -21.1734009 -5.1680002 2.8008001
2118 -19.1891003 -5.1680002 0.0
2119 -19.6068993 -2.5840001 1.8672
2120 -18.0403004 -5.1680002 2.8008001
2122 -15.8472004 -5.1680002 0.0
2123 -16.4738007 -2.5840001 1.8672
2124 -14.9073 -5.1680002 2.8008001
2126 -12.5052996 -5.1680002 0.0
2127 -13.3407002 -2.5840001 1.8672
2128 -11.7742005 -5.1680002 2.8008001
2130 -9.1632996 -5.1680002 0.0
2131 -10.2076998 -2.5840001 1.8672
2132 -8.6412001 -5.1680002 2.8008001
2134 -5.8214002 -5.1680002 0.0
2135 -7.0746002 -2.5840001 1.8672
2136 -5.5081001 -5.1680002 2.8008001
2138 -2.4795001 -5.1680002 0.0
2139 -3.9416002 -2.5840001 1.8672
2140 -2.3750999 -5.1680002 2.8008001
2142 0.8624 -5.1680002 0.0
2143 -0.8085 -2.5840001 1.8672
2144 0.758 -5.1680002 2.8008001
2146 4.2044001 -5.1680002 0.0
2147 2.3245001 -2.5840001 1.8672
2148 3.8911 -5.1680002 2.8008001
2150 7.5463 -5.1680002 0.0
2151 5.4576001 -2.5840001 1.8672
2152 7.0240998 -5.1680002 2.8008001
2154 10.8881998 -5.1680002 0.0
2155 8.5906 -2.5840001 1.8672
2156 10.1571999 -5.1680002 2.8008001
2158 14.2300997 -5.1680002 0.0
2159 11.7236996 -2.5840001 1.8672
2160 13.2902002 -5.1680002 2.8008001
2162 17.5720997 -5.1680002 0.0
2163 14.8567 -2.5840001 1.8672
2164 16.4232998 -5.1680002 2.8008001
2166 20.9139996 -5.1680002 0.0
2167 17.9897996 -2.5840001 1.8672
2168 19.5562992 -5.1680002 2.8008001
2170 21.1228008 -2.5840001 1.8672
2171 22.6893997 -5.1680002 2.8008001
2173 -25.8729992 0.0 0.0
2174 -25.8729992 2.5840001 1.8672
2175 -24.3064003 0.0 2.8008001
2177 -22.5310002 0.0 0.0
2178 -22.7399006 2.5840001 1.8672
2179 -21.1734009 0.0 2.8008001
2181 -19.1891003 0.0 0.0
2182 -19.6068993 2.5840001 1.8672
2183 -18.0403004 0.0 2.8008001
2185 -15.8472004 0.0 0.0
2186 -16.4738007 2.5840001 1.8672
2187 -14.9073 0.0 2.8008001
2189 -12.5052996 0.0 0.0
2190 -13.3407002 2.5840001 1.8672
2191 -11.7742005 0.0 2.8008001
2193 -9.1632996 0.0 0.0
2194 -10.2076998 2.5840001 1.8672
2195 -8.6412001 0.0 2.8008001
2197 -5.8214002 0.0 0.0
2198 -7.0746002 2.5840001 1.8672
2199 -5.5081001 0.0 2.8008001
2201 -2.4795001 0.0 0.0
2202 -3.9416002 2.5840001 1.8672
2203 -2.3750999 0.0 2.8008001
2205 0.8624 0.0 0.0
2206 -0.8085 2.5840001 1.8672
2207 0.758 0.0 2.8008001
2209 4.2044001 0.0 0.0
2210 2.3245001 2.5840001 1.8672
2211 3.8911 0.0 2.8008001
2213 7.5463 0.0 0.0
2214 5.4576001 2.5840001 1.8672
2215 7.0240998 0.0 2.8008001
2217 10.8881998 0.0 0.0
2218 8.5906 2.5840001 1.8672
2219 10.1571999 0.0 2.8008001
2221 14.2300997 0.0 0.0
2222 11.7236996 2.5840001 1.8672
2223 13.2902002 0.0 2.8008001
2225 17.5720997 0.0 0.0
2226 14.8567 2.5840001 1.8672
2227 16.4232998 0.0 2.8008001
2229 20.9139996 0.0 0.0
2230 17.9897996 2.5840001 1.8672
2231 19.5562992 0.0 2.8008001
2233 21.1228008 2.5840001 1.8672
2234 22.6893997 0.0 2.8008001
2236 -25.8729992 5.1680002 0.0
2237 -25.8729992 7.7519999 1.8672
2238 -24.3064003 5.1680002 2.8008001
2240 -22.5310002 5.1680002 0.0
2241 -22.7399006 7.7519999 1.8672
2242 -21.1734009 5.1680002 2.8008001
2244 -19.1891003 5.1680002 0.0
2245 -19.6068993 7.7519999 1.8672
2246 -18.0403004 5.1680002 2.8008001
2248 -15.8472004 5.1680002 0.0
2249 -16.4738007 7.7519999 1.8672
2250 -14.9073 5.1680002 2.8008001
2252 -12.5052996 5.1680002 0.0
2253 -13.3407002 7.7519999 1.8672
2254 -11.7742005 5.1680002 2.8008001
2256 -9.1632996 5.1680002 0.0
2257 -10.2076998 7.7519999 1.8672
2258 -8.6412001 5.1680002 2.8008001
2260 -5.8214002 5.1680002 0.0
2261 -7.0746002 7.7519999 1.8672
2262 -5.5081001 5.1680002 2.8008001
2264 -2.4795001 5.1680002 0.0
2265 -3.9416002 7.7519999 1.8672
2266 -2.3750999 5.1680002 2.8008001
2268 0.8624 5.1680002 0.0
2269 -0.8085 7.7519999 1.8672
2270 0.758 5.1680002 2.8008001
2272 4.2044001 5.1680002 0.0
2273 2.3245001 7.7519999 1.8672
2274 3.8911 5.1680002 2.8008001
2276 7.5463 5.1680002 0.0
2277 5.4576001 7.7519999 1.8672
2278 7.0240998 5.1680002 2.8008001
2280 10.8881998 5.1680002 0.0
2281 8.5906 7.7519999 1.8672
2282 10.1571999 5.1680002 2.8008001
2284 14.2300997 5.1680002 0.0
2285 11.7236996 7.7519999 1.8672
2286 13.2902002 5.1680002 2.8008001
2288 17.5720997 5.1680002 0.0
2289 14.8567 7.7519999 1.8672
2290 16.4232998 5.1680002 2.8008001
2292 20.9139996 5.1680002 0.0
2293 17.9897996 7.7519999 1.8672
2294 19.5562992 5.1680002 2.8008001
2296 21.1228008 7.7519999 1.8672
2297 22.6893997 5.1680002 2.8008001
2299 -25.8729992 10.3360005 0.0
2300 -25.8729992 12.9200002 1.8672
2301 -24.3064003 10.3360005 2.8008001
2303 -22.5310002 10.3360005 0.0
2304 -22.7399006 12.9200002 1.8672
2305 -21.1734009 10.3360005 2.8008001
2307 -19.1891003 10.3360005 0.0
2308 -19.6068993 12.9200002 1.8672
2309 -18.0403004 10.3360005 2.8008001
2311 -15.8472004 10.3360005 0.0
2312 -16.4738007 12.9200002 1.8672
2313 -14.9073 10.3360005 2.8008001
2315 -12.5052996 10.3360005 0.0
2316 -13.3407002 12.9200002 1.8672
2317 -11.7742005 10.3360005 2.8008001
2319 -9.1632996 10.3360005 0.0
2320 -10.2076998 12.9200002 1.8672
2321 -8.6412001 10.3360005 2.8008001
2323 -5.8214002 10.3360005 0.0
2324 -7.0746002 12.9200002 1.8672
2325 -5.5081001 10.3360005 2.8008001
2327 -2.4795001 10.3360005 0.0
2328 -3.9416002 12.9200002 1.8672
2329 -2.3750999 10.3360005 2.8008001
2331 0.8624 10.3360005 0.0
2332 -0.8085 12.9200002 1.8672
2333 0.758 10.3360005 2.8008001
2335 4.2044001 10.3360005 0.0
2336 2.3245001 12.9200002 1.8672
2337 3.8911 10.3360005 2.8008001
2339 7.5463 10.3360005 0.0
2340 5.4576001 12.9200002 1.8672
2341 7.0240998 10.3360005 2.8008001
2343 10.8881998 10.3360005 0.0
2344 8.5906 12.9200002 1.8672
2345 10.1571999 10.3360005 2.8008001
2347 14.2300997 10.3360005 0.0
2348 11.7236996 12.9200002 1.8672
2349 13.2902002 10.3360005 2.8008001
2351 17.5720997 10.3360005 0.0
2352 14.8567 12.9200002 1.8672
2353 16.4232998 10.3360005 2.8008001
2355 20.9139996 10.3360005 0.0
2356 17.9897996 12.9200002 1.8672
2357 19.5562992 10.3360005 2.8008001
2359 21.1228008 12.9200002 1.8672
2360 22.6893997 10.3360005 2.8008001
2362 -25.8729992 15.5038996 0.0
2363 -25.8729992 18.0879002 1.8672
2364 -24.3064003 15.5038996 2.8008001
2366 -22.5310002 15.5038996 0.0
2367 -22.7399006 18.0879002 1.8672
2368 -21.1734009 15.5038996 2.8008001
2370 -19.1891003 15.5038996 0.0
2371 -19.6068993 18.0879002 1.8672
2372 -18.0403004 15.5038996 2.8008001
2374 -15.8472004 15.5038996 0.0
2375 -16.4738007 18.0879002 1.8672
2376 -14.9073 15.5038996 2.8008001
2378 -12.5052996 15.5038996 0.0
2379 -13.3407002 18.0879002 1.8672
2380 -11.7742005 15.5038996 2.8008001
2382 -9.1632996 15.5038996 0.0
2383 -10.2076998 18.0879002 1.8672
2384 -8.6412001 15.5038996 2.8008001
2386 -5.8214002 15.5038996 0.0
2387 -7.0746002 18.0879002 1.8672
2388 -5.5081001 15.5038996 2.8008001
2390 -2.4795001 15.5038996 0.0
2391 -3.9416002 18.0879002 1.8672
2392 -2.3750999 15.5038996 2.8008001
2394 0.8624 15.5038996 0.0
2395 -0.8085 18.0879002 1.8672
2396 0.758 15.5038996 2.8008001
2398 4.2044001 15.5038996 0.0
2399 2.3245001 18.0879002 1.8672
2400 3.8911 15.5038996 2.8008001
2402 7.5463 15.5038996 0.0
2403 5.4576001 18.0879002 1.8672
2404 7.0240998 15.5038996 2.8008001
2406 10.8881998 15.5038996 0.0
2407 8.5906 18.0879002 1.8672
2408 10.1571999 15.5038996 2.8008001
2410 14.2300997 15.5038996 0.0
2411 11.7236996 18.0879002 1.8672
2412 13.2902002 15.5038996 2.8008001
2414 17.5720997 15.5038996 0.0
2415 14.8567 18.0879002 1.8672
2416 16.4232998 15.5038996 2.8008001
2418 20.9139996 15.5038996 0.0
2419 17.9897996 18.0879002 1.8672
2420 19.5562992 15.5038996 2.8008001
2422 21.1228008 18.0879002 1.8672
2423 22.6893997 15.5038996 2.8008001
