#ver. 09 HCP-Zr [11-20],[0001],[-1100] + dislocation and loop, metal units, 10K
    3200 atoms
    1 atom types

-16.170600 16.170600 xlo xhi
-25.839900 25.814595 ylo yhi
-22.406641 22.406641 zlo zhi
1.6171 0.0000 0.0000 xy xz yz

Masses

    1 91.224

Atoms

	1	1	-14.112708 -25.839900 -22.406641
	2	1	-14.117389 -23.255910 -20.539421
	3	1	-12.462045 -25.839900 -19.605811
	4	1	-12.463353 -23.255910 -17.738590
	5	1	-10.878588 -25.839900 -22.406641
	6	1	-10.883269 -23.255910 -20.539421
	7	1	-9.227925 -25.839900 -19.605811
	8	1	-9.229233 -23.255910 -17.738590
	9	1	-7.644468 -25.839900 -22.406641
	10	1	-7.649149 -23.255910 -20.539421
	11	1	-5.993805 -25.839900 -19.605811
	12	1	-5.995113 -23.255910 -17.738590
	13	1	-4.410348 -25.839900 -22.406641
	14	1	-4.415029 -23.255910 -20.539421
	15	1	-2.759685 -25.839900 -19.605811
	16	1	-2.760993 -23.255910 -17.738590
	17	1	-1.176228 -25.839900 -22.406641
	18	1	-1.180909 -23.255910 -20.539421
	19	1	0.474435 -25.839900 -19.605811
	20	1	0.473127 -23.255910 -17.738590
	21	1	2.057892 -25.839900 -22.406641
	22	1	2.053211 -23.255910 -20.539421
	23	1	3.708555 -25.839900 -19.605811
	24	1	3.707247 -23.255910 -17.738590
	25	1	5.292012 -25.839900 -22.406641
	26	1	5.287331 -23.255910 -20.539421
	27	1	6.942675 -25.839900 -19.605811
	28	1	6.941367 -23.255910 -17.738590
	29	1	8.526132 -25.839900 -22.406641
	30	1	8.521451 -23.255910 -20.539421
	31	1	10.176795 -25.839900 -19.605811
	32	1	10.175487 -23.255910 -17.738590
	33	1	11.760252 -25.839900 -22.406641
	34	1	11.755571 -23.255910 -20.539421
	35	1	13.410915 -25.839900 -19.605811
	36	1	13.409607 -23.255910 -17.738590
	37	1	14.994372 -25.839900 -22.406641
	38	1	14.989691 -23.255910 -20.539421
	39	1	-15.696165 -25.839900 -19.605811
	40	1	-15.697473 -23.255910 -17.738590
	41	1	-14.169991 -20.671920 -22.406641
	42	1	-14.181898 -18.087930 -20.539421
	43	1	-12.518594 -20.671920 -19.605811
	44	1	-12.527196 -18.087930 -17.738590
	45	1	-10.935871 -20.671920 -22.406641
	46	1	-10.947778 -18.087930 -20.539421
	47	1	-9.284474 -20.671920 -19.605811
	48	1	-9.293076 -18.087930 -17.738590
	49	1	-7.701751 -20.671920 -22.406641
	50	1	-7.713658 -18.087930 -20.539421
	51	1	-6.050354 -20.671920 -19.605811
	52	1	-6.058956 -18.087930 -17.738590
	53	1	-4.467631 -20.671920 -22.406641
	54	1	-4.479538 -18.087930 -20.539421
	55	1	-2.816234 -20.671920 -19.605811
	56	1	-2.824836 -18.087930 -17.738590
	57	1	-1.233511 -20.671920 -22.406641
	58	1	-1.245418 -18.087930 -20.539421
	59	1	0.417886 -20.671920 -19.605811
	60	1	0.409284 -18.087930 -17.738590
	61	1	2.000609 -20.671920 -22.406641
	62	1	1.988702 -18.087930 -20.539421
	63	1	3.652006 -20.671920 -19.605811
	64	1	3.643404 -18.087930 -17.738590
	65	1	5.234729 -20.671920 -22.406641
	66	1	5.222822 -18.087930 -20.539421
	67	1	6.886126 -20.671920 -19.605811
	68	1	6.877524 -18.087930 -17.738590
	69	1	8.468849 -20.671920 -22.406641
	70	1	8.456942 -18.087930 -20.539421
	71	1	10.120246 -20.671920 -19.605811
	72	1	10.111644 -18.087930 -17.738590
	73	1	11.702969 -20.671920 -22.406641
	74	1	11.691062 -18.087930 -20.539421
	75	1	13.354366 -20.671920 -19.605811
	76	1	13.345764 -18.087930 -17.738590
	77	1	14.937089 -20.671920 -22.406641
	78	1	14.925182 -18.087930 -20.539421
	79	1	-15.752714 -20.671920 -19.605811
	80	1	-15.761316 -18.087930 -17.738590
	81	1	-14.241980 -15.503940 -22.406641
	82	1	-14.264525 -12.919950 -20.539421
	83	1	-12.592079 -15.503940 -19.605811
	84	1	-12.612459 -12.919950 -17.738590
	85	1	-11.007860 -15.503940 -22.406641
	86	1	-11.030405 -12.919950 -20.539421
	87	1	-9.357959 -15.503940 -19.605811
	88	1	-9.378339 -12.919950 -17.738590
	89	1	-7.773740 -15.503940 -22.406641
	90	1	-7.796285 -12.919950 -20.539421
	91	1	-6.123839 -15.503940 -19.605811
	92	1	-6.144219 -12.919950 -17.738590
	93	1	-4.539620 -15.503940 -22.406641
	94	1	-4.562165 -12.919950 -20.539421
	95	1	-2.889719 -15.503940 -19.605811
	96	1	-2.910099 -12.919950 -17.738590
	97	1	-1.305500 -15.503940 -22.406641
	98	1	-1.328045 -12.919950 -20.539421
	99	1	0.344401 -15.503940 -19.605811
	100	1	0.324021 -12.919950 -17.738590
	101	1	1.928620 -15.503940 -22.406641
	102	1	1.906075 -12.919950 -20.539421
	103	1	3.578521 -15.503940 -19.605811
	104	1	3.558141 -12.919950 -17.738590
	105	1	5.162740 -15.503940 -22.406641
	106	1	5.140195 -12.919950 -20.539421
	107	1	6.812641 -15.503940 -19.605811
	108	1	6.792261 -12.919950 -17.738590
	109	1	8.396860 -15.503940 -22.406641
	110	1	8.374315 -12.919950 -20.539421
	111	1	10.046761 -15.503940 -19.605811
	112	1	10.026381 -12.919950 -17.738590
	113	1	11.630980 -15.503940 -22.406641
	114	1	11.608435 -12.919950 -20.539421
	115	1	13.280881 -15.503940 -19.605811
	116	1	13.260501 -12.919950 -17.738590
	117	1	14.865100 -15.503940 -22.406641
	118	1	14.842555 -12.919950 -20.539421
	119	1	-15.826199 -15.503940 -19.605811
	120	1	-15.846579 -12.919950 -17.738590
	121	1	-14.331074 -10.335960 -22.406641
	122	1	-14.367781 -7.751970 -20.539421
	123	1	-12.686755 -10.335960 -19.605811
	124	1	-12.724413 -7.751970 -17.738590
	125	1	-11.096954 -10.335960 -22.406641
	126	1	-11.133661 -7.751970 -20.539421
	127	1	-9.452635 -10.335960 -19.605811
	128	1	-9.490293 -7.751970 -17.738590
	129	1	-7.862834 -10.335960 -22.406641
	130	1	-7.899541 -7.751970 -20.539421
	131	1	-6.218515 -10.335960 -19.605811
	132	1	-6.256173 -7.751970 -17.738590
	133	1	-4.628714 -10.335960 -22.406641
	134	1	-4.665421 -7.751970 -20.539421
	135	1	-2.984395 -10.335960 -19.605811
	136	1	-3.022053 -7.751970 -17.738590
	137	1	-1.394594 -10.335960 -22.406641
	138	1	-1.431301 -7.751970 -20.539421
	139	1	0.249725 -10.335960 -19.605811
	140	1	0.212067 -7.751970 -17.738590
	141	1	1.839526 -10.335960 -22.406641
	142	1	1.802819 -7.751970 -20.539421
	143	1	3.483845 -10.335960 -19.605811
	144	1	3.446187 -7.751970 -17.738590
	145	1	5.073646 -10.335960 -22.406641
	146	1	5.036939 -7.751970 -20.539421
	147	1	6.717965 -10.335960 -19.605811
	148	1	6.680307 -7.751970 -17.738590
	149	1	8.307766 -10.335960 -22.406641
	150	1	8.271059 -7.751970 -20.539421
	151	1	9.952085 -10.335960 -19.605811
	152	1	9.914427 -7.751970 -17.738590
	153	1	11.541886 -10.335960 -22.406641
	154	1	11.505179 -7.751970 -20.539421
	155	1	13.186205 -10.335960 -19.605811
	156	1	13.148547 -7.751970 -17.738590
	157	1	14.776006 -10.335960 -22.406641
	158	1	14.739299 -7.751970 -20.539421
	159	1	-15.920875 -10.335960 -19.605811
	160	1	-15.958533 -7.751970 -17.738590
	161	1	-14.436861 -5.167980 -22.406641
	162	1	-14.489123 -2.583990 -20.539421
	163	1	-12.803819 -5.167980 -19.605811
	164	1	-12.862023 -2.583990 -17.738590
	165	1	-11.202741 -5.167980 -22.406641
	166	1	-11.255003 -2.583990 -20.539421
	167	1	-9.569699 -5.167980 -19.605811
	168	1	-9.627903 -2.583990 -17.738590
	169	1	-7.968621 -5.167980 -22.406641
	170	1	-8.020883 -2.583990 -20.539421
	171	1	-6.335579 -5.167980 -19.605811
	172	1	-6.393783 -2.583990 -17.738590
	173	1	-4.734501 -5.167980 -22.406641
	174	1	-4.786763 -2.583990 -20.539421
	175	1	-3.101459 -5.167980 -19.605811
	176	1	-3.159663 -2.583990 -17.738590
	177	1	-1.500381 -5.167980 -22.406641
	178	1	-1.552643 -2.583990 -20.539421
	179	1	0.132661 -5.167980 -19.605811
	180	1	0.074457 -2.583990 -17.738590
	181	1	1.733739 -5.167980 -22.406641
	182	1	1.681477 -2.583990 -20.539421
	183	1	3.366781 -5.167980 -19.605811
	184	1	3.308577 -2.583990 -17.738590
	185	1	4.967859 -5.167980 -22.406641
	186	1	4.915597 -2.583990 -20.539421
	187	1	6.600901 -5.167980 -19.605811
	188	1	6.542697 -2.583990 -17.738590
	189	1	8.201979 -5.167980 -22.406641
	190	1	8.149717 -2.583990 -20.539421
	191	1	9.835021 -5.167980 -19.605811
	192	1	9.776817 -2.583990 -17.738590
	193	1	11.436099 -5.167980 -22.406641
	194	1	11.383837 -2.583990 -20.539421
	195	1	13.069141 -5.167980 -19.605811
	196	1	13.010937 -2.583990 -17.738590
	197	1	14.670219 -5.167980 -22.406641
	198	1	14.617957 -2.583990 -20.539421
	199	1	-16.037939 -5.167980 -19.605811
	200	1	-16.096143 -2.583990 -17.738590
	201	1	-14.553540 0.000000 -22.406641
	202	1	-14.617957 2.583990 -20.539421
	203	1	-12.936480 0.000000 -19.605811
	204	1	-13.010937 2.583990 -17.738590
	205	1	-11.319420 0.000000 -22.406641
	206	1	-11.383837 2.583990 -20.539421
	207	1	-9.702360 0.000000 -19.605811
	208	1	-9.776817 2.583990 -17.738590
	209	1	-8.085300 0.000000 -22.406641
	210	1	-8.149717 2.583990 -20.539421
	211	1	-6.468240 0.000000 -19.605811
	212	1	-6.542697 2.583990 -17.738590
	213	1	-4.851180 0.000000 -22.406641
	214	1	-4.915597 2.583990 -20.539421
	215	1	-3.234120 0.000000 -19.605811
	216	1	-3.308577 2.583990 -17.738590
	217	1	-1.617060 0.000000 -22.406641
	218	1	-1.681477 2.583990 -20.539421
	219	1	0.000000 0.000000 -19.605811
	220	1	-0.074457 2.583990 -17.738590
	221	1	1.617060 0.000000 -22.406641
	222	1	1.552643 2.583990 -20.539421
	223	1	3.234120 0.000000 -19.605811
	224	1	3.159663 2.583990 -17.738590
	225	1	4.851180 0.000000 -22.406641
	226	1	4.786763 2.583990 -20.539421
	227	1	6.468240 0.000000 -19.605811
	228	1	6.393783 2.583990 -17.738590
	229	1	8.085300 0.000000 -22.406641
	230	1	8.020883 2.583990 -20.539421
	231	1	9.702360 0.000000 -19.605811
	232	1	9.627903 2.583990 -17.738590
	233	1	11.319420 0.000000 -22.406641
	234	1	11.255003 2.583990 -20.539421
	235	1	12.936480 0.000000 -19.605811
	236	1	12.862023 2.583990 -17.738590
	237	1	14.553540 0.000000 -22.406641
	238	1	14.489123 2.583990 -20.539421
	239	1	-16.170600 0.000000 -19.605811
	240	1	16.096143 2.583990 -17.738590
	241	1	-14.670219 5.167980 -22.406641
	242	1	-14.739299 7.751970 -20.539421
	243	1	-13.069141 5.167980 -19.605811
	244	1	-13.148547 7.751970 -17.738590
	245	1	-11.436099 5.167980 -22.406641
	246	1	-11.505179 7.751970 -20.539421
	247	1	-9.835021 5.167980 -19.605811
	248	1	-9.914427 7.751970 -17.738590
	249	1	-8.201979 5.167980 -22.406641
	250	1	-8.271059 7.751970 -20.539421
	251	1	-6.600901 5.167980 -19.605811
	252	1	-6.680307 7.751970 -17.738590
	253	1	-4.967859 5.167980 -22.406641
	254	1	-5.036939 7.751970 -20.539421
	255	1	-3.366781 5.167980 -19.605811
	256	1	-3.446187 7.751970 -17.738590
	257	1	-1.733739 5.167980 -22.406641
	258	1	-1.802819 7.751970 -20.539421
	259	1	-0.132661 5.167980 -19.605811
	260	1	-0.212067 7.751970 -17.738590
	261	1	1.500381 5.167980 -22.406641
	262	1	1.431301 7.751970 -20.539421
	263	1	3.101459 5.167980 -19.605811
	264	1	3.022053 7.751970 -17.738590
	265	1	4.734501 5.167980 -22.406641
	266	1	4.665421 7.751970 -20.539421
	267	1	6.335579 5.167980 -19.605811
	268	1	6.256173 7.751970 -17.738590
	269	1	7.968621 5.167980 -22.406641
	270	1	7.899541 7.751970 -20.539421
	271	1	9.569699 5.167980 -19.605811
	272	1	9.490293 7.751970 -17.738590
	273	1	11.202741 5.167980 -22.406641
	274	1	11.133661 7.751970 -20.539421
	275	1	12.803819 5.167980 -19.605811
	276	1	12.724413 7.751970 -17.738590
	277	1	14.436861 5.167980 -22.406641
	278	1	14.367781 7.751970 -20.539421
	279	1	16.037939 5.167980 -19.605811
	280	1	15.958533 7.751970 -17.738590
	281	1	-14.776006 10.335960 -22.406641
	282	1	-14.842555 12.919950 -20.539421
	283	1	-13.186205 10.335960 -19.605811
	284	1	-13.260501 12.919950 -17.738590
	285	1	-11.541886 10.335960 -22.406641
	286	1	-11.608435 12.919950 -20.539421
	287	1	-9.952085 10.335960 -19.605811
	288	1	-10.026381 12.919950 -17.738590
	289	1	-8.307766 10.335960 -22.406641
	290	1	-8.374315 12.919950 -20.539421
	291	1	-6.717965 10.335960 -19.605811
	292	1	-6.792261 12.919950 -17.738590
	293	1	-5.073646 10.335960 -22.406641
	294	1	-5.140195 12.919950 -20.539421
	295	1	-3.483845 10.335960 -19.605811
	296	1	-3.558141 12.919950 -17.738590
	297	1	-1.839526 10.335960 -22.406641
	298	1	-1.906075 12.919950 -20.539421
	299	1	-0.249725 10.335960 -19.605811
	300	1	-0.324021 12.919950 -17.738590
	301	1	1.394594 10.335960 -22.406641
	302	1	1.328045 12.919950 -20.539421
	303	1	2.984395 10.335960 -19.605811
	304	1	2.910099 12.919950 -17.738590
	305	1	4.628714 10.335960 -22.406641
	306	1	4.562165 12.919950 -20.539421
	307	1	6.218515 10.335960 -19.605811
	308	1	6.144219 12.919950 -17.738590
	309	1	7.862834 10.335960 -22.406641
	310	1	7.796285 12.919950 -20.539421
	311	1	9.452635 10.335960 -19.605811
	312	1	9.378339 12.919950 -17.738590
	313	1	11.096954 10.335960 -22.406641
	314	1	11.030405 12.919950 -20.539421
	315	1	12.686755 10.335960 -19.605811
	316	1	12.612459 12.919950 -17.738590
	317	1	14.331074 10.335960 -22.406641
	318	1	14.264525 12.919950 -20.539421
	319	1	15.920875 10.335960 -19.605811
	320	1	15.846579 12.919950 -17.738590
	321	1	-14.865100 15.503940 -22.406641
	322	1	-14.925182 18.087930 -20.539421
	323	1	-13.280881 15.503940 -19.605811
	324	1	-13.345764 18.087930 -17.738590
	325	1	-11.630980 15.503940 -22.406641
	326	1	-11.691062 18.087930 -20.539421
	327	1	-10.046761 15.503940 -19.605811
	328	1	-10.111644 18.087930 -17.738590
	329	1	-8.396860 15.503940 -22.406641
	330	1	-8.456942 18.087930 -20.539421
	331	1	-6.812641 15.503940 -19.605811
	332	1	-6.877524 18.087930 -17.738590
	333	1	-5.162740 15.503940 -22.406641
	334	1	-5.222822 18.087930 -20.539421
	335	1	-3.578521 15.503940 -19.605811
	336	1	-3.643404 18.087930 -17.738590
	337	1	-1.928620 15.503940 -22.406641
	338	1	-1.988702 18.087930 -20.539421
	339	1	-0.344401 15.503940 -19.605811
	340	1	-0.409284 18.087930 -17.738590
	341	1	1.305500 15.503940 -22.406641
	342	1	1.245418 18.087930 -20.539421
	343	1	2.889719 15.503940 -19.605811
	344	1	2.824836 18.087930 -17.738590
	345	1	4.539620 15.503940 -22.406641
	346	1	4.479538 18.087930 -20.539421
	347	1	6.123839 15.503940 -19.605811
	348	1	6.058956 18.087930 -17.738590
	349	1	7.773740 15.503940 -22.406641
	350	1	7.713658 18.087930 -20.539421
	351	1	9.357959 15.503940 -19.605811
	352	1	9.293076 18.087930 -17.738590
	353	1	11.007860 15.503940 -22.406641
	354	1	10.947778 18.087930 -20.539421
	355	1	12.592079 15.503940 -19.605811
	356	1	12.527196 18.087930 -17.738590
	357	1	14.241980 15.503940 -22.406641
	358	1	14.181898 18.087930 -20.539421
	359	1	15.826199 15.503940 -19.605811
	360	1	15.761316 18.087930 -17.738590
	361	1	-14.937089 20.671920 -22.406641
	362	1	-14.989691 23.255910 -20.539421
	363	1	-13.354366 20.671920 -19.605811
	364	1	-13.409607 23.255910 -17.738590
	365	1	-11.702969 20.671920 -22.406641
	366	1	-11.755571 23.255910 -20.539421
	367	1	-10.120246 20.671920 -19.605811
	368	1	-10.175487 23.255910 -17.738590
	369	1	-8.468849 20.671920 -22.406641
	370	1	-8.521451 23.255910 -20.539421
	371	1	-6.886126 20.671920 -19.605811
	372	1	-6.941367 23.255910 -17.738590
	373	1	-5.234729 20.671920 -22.406641
	374	1	-5.287331 23.255910 -20.539421
	375	1	-3.652006 20.671920 -19.605811
	376	1	-3.707247 23.255910 -17.738590
	377	1	-2.000609 20.671920 -22.406641
	378	1	-2.053211 23.255910 -20.539421
	379	1	-0.417886 20.671920 -19.605811
	380	1	-0.473127 23.255910 -17.738590
	381	1	1.233511 20.671920 -22.406641
	382	1	1.180909 23.255910 -20.539421
	383	1	2.816234 20.671920 -19.605811
	384	1	2.760993 23.255910 -17.738590
	385	1	4.467631 20.671920 -22.406641
	386	1	4.415029 23.255910 -20.539421
	387	1	6.050354 20.671920 -19.605811
	388	1	5.995113 23.255910 -17.738590
	389	1	7.701751 20.671920 -22.406641
	390	1	7.649149 23.255910 -20.539421
	391	1	9.284474 20.671920 -19.605811
	392	1	9.229233 23.255910 -17.738590
	393	1	10.935871 20.671920 -22.406641
	394	1	10.883269 23.255910 -20.539421
	395	1	12.518594 20.671920 -19.605811
	396	1	12.463353 23.255910 -17.738590
	397	1	14.169991 20.671920 -22.406641
	398	1	14.117389 23.255910 -20.539421
	399	1	15.752714 20.671920 -19.605811
	400	1	15.697473 23.255910 -17.738590
	401	1	-14.041812 -25.839900 -16.804980
	402	1	-14.038897 -23.255910 -14.937760
	403	1	-12.383588 -25.839900 -14.004150
	404	1	-12.375535 -23.255910 -12.136930
	405	1	-10.807692 -25.839900 -16.804980
	406	1	-10.804777 -23.255910 -14.937760
	407	1	-9.149468 -25.839900 -14.004150
	408	1	-9.141415 -23.255910 -12.136930
	409	1	-7.573572 -25.839900 -16.804980
	410	1	-7.570657 -23.255910 -14.937760
	411	1	-5.915348 -25.839900 -14.004150
	412	1	-5.907295 -23.255910 -12.136930
	413	1	-4.339452 -25.839900 -16.804980
	414	1	-4.336537 -23.255910 -14.937760
	415	1	-2.681228 -25.839900 -14.004150
	416	1	-2.673175 -23.255910 -12.136930
	417	1	-1.105332 -25.839900 -16.804980
	418	1	-1.102417 -23.255910 -14.937760
	419	1	0.552892 -25.839900 -14.004150
	420	1	0.560945 -23.255910 -12.136930
	421	1	2.128788 -25.839900 -16.804980
	422	1	2.131703 -23.255910 -14.937760
	423	1	3.787012 -25.839900 -14.004150
	424	1	3.795065 -23.255910 -12.136930
	425	1	5.362908 -25.839900 -16.804980
	426	1	5.365823 -23.255910 -14.937760
	427	1	7.021132 -25.839900 -14.004150
	428	1	7.029185 -23.255910 -12.136930
	429	1	8.597028 -25.839900 -16.804980
	430	1	8.599943 -23.255910 -14.937760
	431	1	10.255252 -25.839900 -14.004150
	432	1	10.263305 -23.255910 -12.136930
	433	1	11.831148 -25.839900 -16.804980
	434	1	11.834063 -23.255910 -14.937760
	435	1	13.489372 -25.839900 -14.004150
	436	1	13.497425 -23.255910 -12.136930
	437	1	15.065268 -25.839900 -16.804980
	438	1	15.068183 -23.255910 -14.937760
	439	1	-15.617708 -25.839900 -14.004150
	440	1	-15.609655 -23.255910 -12.136930
	441	1	-14.096352 -20.671920 -16.804980
	442	1	-14.100326 -18.087930 -14.937760
	443	1	-12.434433 -20.671920 -14.004150
	444	1	-12.432150 -18.087930 -12.136930
	445	1	-10.862232 -20.671920 -16.804980
	446	1	-10.866206 -18.087930 -14.937760
	447	1	-9.200313 -20.671920 -14.004150
	448	1	-9.198030 -18.087930 -12.136930
	449	1	-7.628112 -20.671920 -16.804980
	450	1	-7.632086 -18.087930 -14.937760
	451	1	-5.966193 -20.671920 -14.004150
	452	1	-5.963910 -18.087930 -12.136930
	453	1	-4.393992 -20.671920 -16.804980
	454	1	-4.397966 -18.087930 -14.937760
	455	1	-2.732073 -20.671920 -14.004150
	456	1	-2.729790 -18.087930 -12.136930
	457	1	-1.159872 -20.671920 -16.804980
	458	1	-1.163846 -18.087930 -14.937760
	459	1	0.502047 -20.671920 -14.004150
	460	1	0.504330 -18.087930 -12.136930
	461	1	2.074248 -20.671920 -16.804980
	462	1	2.070274 -18.087930 -14.937760
	463	1	3.736167 -20.671920 -14.004150
	464	1	3.738450 -18.087930 -12.136930
	465	1	5.308368 -20.671920 -16.804980
	466	1	5.304394 -18.087930 -14.937760
	467	1	6.970287 -20.671920 -14.004150
	468	1	6.972570 -18.087930 -12.136930
	469	1	8.542488 -20.671920 -16.804980
	470	1	8.538514 -18.087930 -14.937760
	471	1	10.204407 -20.671920 -14.004150
	472	1	10.206690 -18.087930 -12.136930
	473	1	11.776608 -20.671920 -16.804980
	474	1	11.772634 -18.087930 -14.937760
	475	1	13.438527 -20.671920 -14.004150
	476	1	13.440810 -18.087930 -12.136930
	477	1	15.010728 -20.671920 -16.804980
	478	1	15.006754 -18.087930 -14.937760
	479	1	-15.668553 -20.671920 -14.004150
	480	1	-15.666270 -18.087930 -12.136930
	481	1	-14.169991 -15.503940 -16.804980
	482	1	-14.186493 -12.919950 -14.937760
	483	1	-12.506076 -15.503940 -14.004150
	484	1	-12.516135 -12.919950 -12.136930
	485	1	-10.935871 -15.503940 -16.804980
	486	1	-10.952373 -12.919950 -14.937760
	487	1	-9.271956 -15.503940 -14.004150
	488	1	-9.282015 -12.919950 -12.136930
	489	1	-7.701751 -15.503940 -16.804980
	490	1	-7.718253 -12.919950 -14.937760
	491	1	-6.037836 -15.503940 -14.004150
	492	1	-6.047895 -12.919950 -12.136930
	493	1	-4.467631 -15.503940 -16.804980
	494	1	-4.484133 -12.919950 -14.937760
	495	1	-2.803716 -15.503940 -14.004150
	496	1	-2.813775 -12.919950 -12.136930
	497	1	-1.233511 -15.503940 -16.804980
	498	1	-1.250013 -12.919950 -14.937760
	499	1	0.430404 -15.503940 -14.004150
	500	1	0.420345 -12.919950 -12.136930
	501	1	2.000609 -15.503940 -16.804980
	502	1	1.984107 -12.919950 -14.937760
	503	1	3.664524 -15.503940 -14.004150
	504	1	3.654465 -12.919950 -12.136930
	505	1	5.234729 -15.503940 -16.804980
	506	1	5.218227 -12.919950 -14.937760
	507	1	6.898644 -15.503940 -14.004150
	508	1	6.888585 -12.919950 -12.136930
	509	1	8.468849 -15.503940 -16.804980
	510	1	8.452347 -12.919950 -14.937760
	511	1	10.132764 -15.503940 -14.004150
	512	1	10.122705 -12.919950 -12.136930
	513	1	11.702969 -15.503940 -16.804980
	514	1	11.686467 -12.919950 -14.937760
	515	1	13.366884 -15.503940 -14.004150
	516	1	13.356825 -12.919950 -12.136930
	517	1	14.937089 -15.503940 -16.804980
	518	1	14.920587 -12.919950 -14.937760
	519	1	-15.740196 -15.503940 -14.004150
	520	1	-15.750255 -12.919950 -12.136930
	521	1	-14.269712 -10.335960 -16.804980
	522	1	-14.307144 -7.751970 -14.937760
	523	1	-12.609208 -10.335960 -14.004150
	524	1	-12.643911 -7.751970 -12.136930
	525	1	-11.035592 -10.335960 -16.804980
	526	1	-11.073024 -7.751970 -14.937760
	527	1	-9.375088 -10.335960 -14.004150
	528	1	-9.409791 -7.751970 -12.136930
	529	1	-7.801472 -10.335960 -16.804980
	530	1	-7.838904 -7.751970 -14.937760
	531	1	-6.140968 -10.335960 -14.004150
	532	1	-6.175671 -7.751970 -12.136930
	533	1	-4.567352 -10.335960 -16.804980
	534	1	-4.604784 -7.751970 -14.937760
	535	1	-2.906848 -10.335960 -14.004150
	536	1	-2.941551 -7.751970 -12.136930
	537	1	-1.333232 -10.335960 -16.804980
	538	1	-1.370664 -7.751970 -14.937760
	539	1	0.327272 -10.335960 -14.004150
	540	1	0.292569 -7.751970 -12.136930
	541	1	1.900888 -10.335960 -16.804980
	542	1	1.863456 -7.751970 -14.937760
	543	1	3.561392 -10.335960 -14.004150
	544	1	3.526689 -7.751970 -12.136930
	545	1	5.135008 -10.335960 -16.804980
	546	1	5.097576 -7.751970 -14.937760
	547	1	6.795512 -10.335960 -14.004150
	548	1	6.760809 -7.751970 -12.136930
	549	1	8.369128 -10.335960 -16.804980
	550	1	8.331696 -7.751970 -14.937760
	551	1	10.029632 -10.335960 -14.004150
	552	1	9.994929 -7.751970 -12.136930
	553	1	11.603248 -10.335960 -16.804980
	554	1	11.565816 -7.751970 -14.937760
	555	1	13.263752 -10.335960 -14.004150
	556	1	13.229049 -7.751970 -12.136930
	557	1	14.837368 -10.335960 -16.804980
	558	1	14.799936 -7.751970 -14.937760
	559	1	-15.843328 -10.335960 -14.004150
	560	1	-15.878031 -7.751970 -12.136930
	561	1	-14.399973 -5.167980 -16.804980
	562	1	-14.465373 -2.583990 -14.937760
	563	1	-12.754510 -5.167980 -14.004150
	564	1	-12.828505 -2.583990 -12.136930
	565	1	-11.165853 -5.167980 -16.804980
	566	1	-11.231253 -2.583990 -14.937760
	567	1	-9.520390 -5.167980 -14.004150
	568	1	-9.594385 -2.583990 -12.136930
	569	1	-7.931733 -5.167980 -16.804980
	570	1	-7.997133 -2.583990 -14.937760
	571	1	-6.286270 -5.167980 -14.004150
	572	1	-6.360265 -2.583990 -12.136930
	573	1	-4.697613 -5.167980 -16.804980
	574	1	-4.763013 -2.583990 -14.937760
	575	1	-3.052150 -5.167980 -14.004150
	576	1	-3.126145 -2.583990 -12.136930
	577	1	-1.463493 -5.167980 -16.804980
	578	1	-1.528893 -2.583990 -14.937760
	579	1	0.181970 -5.167980 -14.004150
	580	1	0.107975 -2.583990 -12.136930
	581	1	1.770627 -5.167980 -16.804980
	582	1	1.705227 -2.583990 -14.937760
	583	1	3.416090 -5.167980 -14.004150
	584	1	3.342095 -2.583990 -12.136930
	585	1	5.004747 -5.167980 -16.804980
	586	1	4.939347 -2.583990 -14.937760
	587	1	6.650210 -5.167980 -14.004150
	588	1	6.576215 -2.583990 -12.136930
	589	1	8.238867 -5.167980 -16.804980
	590	1	8.173467 -2.583990 -14.937760
	591	1	9.884330 -5.167980 -14.004150
	592	1	9.810335 -2.583990 -12.136930
	593	1	11.472987 -5.167980 -16.804980
	594	1	11.407587 -2.583990 -14.937760
	595	1	13.118450 -5.167980 -14.004150
	596	1	13.044455 -2.583990 -12.136930
	597	1	14.707107 -5.167980 -16.804980
	598	1	14.641707 -2.583990 -14.937760
	599	1	-15.988630 -5.167980 -14.004150
	600	1	-16.062625 -2.583990 -12.136930
	601	1	-14.553540 0.000000 -16.804980
	602	1	-14.641707 2.583990 -14.937760
	603	1	-12.936480 0.000000 -14.004150
	604	1	-13.044455 2.583990 -12.136930
	605	1	-11.319420 0.000000 -16.804980
	606	1	-11.407587 2.583990 -14.937760
	607	1	-9.702360 0.000000 -14.004150
	608	1	-9.810335 2.583990 -12.136930
	609	1	-8.085300 0.000000 -16.804980
	610	1	-8.173467 2.583990 -14.937760
	611	1	-6.468240 0.000000 -14.004150
	612	1	-6.576215 2.583990 -12.136930
	613	1	-4.851180 0.000000 -16.804980
	614	1	-4.939347 2.583990 -14.937760
	615	1	-3.234120 0.000000 -14.004150
	616	1	-3.342095 2.583990 -12.136930
	617	1	-1.617060 0.000000 -16.804980
	618	1	-1.705227 2.583990 -14.937760
	619	1	0.000000 0.000000 -14.004150
	620	1	-0.107975 2.583990 -12.136930
	621	1	1.617060 0.000000 -16.804980
	622	1	1.528893 2.583990 -14.937760
	623	1	3.234120 0.000000 -14.004150
	624	1	3.126145 2.583990 -12.136930
	625	1	4.851180 0.000000 -16.804980
	626	1	4.763013 2.583990 -14.937760
	627	1	6.468240 0.000000 -14.004150
	628	1	6.360265 2.583990 -12.136930
	629	1	8.085300 0.000000 -16.804980
	630	1	7.997133 2.583990 -14.937760
	631	1	9.702360 0.000000 -14.004150
	632	1	9.594385 2.583990 -12.136930
	633	1	11.319420 0.000000 -16.804980
	634	1	11.231253 2.583990 -14.937760
	635	1	12.936480 0.000000 -14.004150
	636	1	12.828505 2.583990 -12.136930
	637	1	14.553540 0.000000 -16.804980
	638	1	14.465373 2.583990 -14.937760
	639	1	-16.170600 0.000000 -14.004150
	640	1	16.062625 2.583990 -12.136930
	641	1	-14.707107 5.167980 -16.804980
	642	1	-14.799936 7.751970 -14.937760
	643	1	-13.118450 5.167980 -14.004150
	644	1	-13.229049 7.751970 -12.136930
	645	1	-11.472987 5.167980 -16.804980
	646	1	-11.565816 7.751970 -14.937760
	647	1	-9.884330 5.167980 -14.004150
	648	1	-9.994929 7.751970 -12.136930
	649	1	-8.238867 5.167980 -16.804980
	650	1	-8.331696 7.751970 -14.937760
	651	1	-6.650210 5.167980 -14.004150
	652	1	-6.760809 7.751970 -12.136930
	653	1	-5.004747 5.167980 -16.804980
	654	1	-5.097576 7.751970 -14.937760
	655	1	-3.416090 5.167980 -14.004150
	656	1	-3.526689 7.751970 -12.136930
	657	1	-1.770627 5.167980 -16.804980
	658	1	-1.863456 7.751970 -14.937760
	659	1	-0.181970 5.167980 -14.004150
	660	1	-0.292569 7.751970 -12.136930
	661	1	1.463493 5.167980 -16.804980
	662	1	1.370664 7.751970 -14.937760
	663	1	3.052150 5.167980 -14.004150
	664	1	2.941551 7.751970 -12.136930
	665	1	4.697613 5.167980 -16.804980
	666	1	4.604784 7.751970 -14.937760
	667	1	6.286270 5.167980 -14.004150
	668	1	6.175671 7.751970 -12.136930
	669	1	7.931733 5.167980 -16.804980
	670	1	7.838904 7.751970 -14.937760
	671	1	9.520390 5.167980 -14.004150
	672	1	9.409791 7.751970 -12.136930
	673	1	11.165853 5.167980 -16.804980
	674	1	11.073024 7.751970 -14.937760
	675	1	12.754510 5.167980 -14.004150
	676	1	12.643911 7.751970 -12.136930
	677	1	14.399973 5.167980 -16.804980
	678	1	14.307144 7.751970 -14.937760
	679	1	15.988630 5.167980 -14.004150
	680	1	15.878031 7.751970 -12.136930
	681	1	-14.837368 10.335960 -16.804980
	682	1	-14.920587 12.919950 -14.937760
	683	1	-13.263752 10.335960 -14.004150
	684	1	-13.356825 12.919950 -12.136930
	685	1	-11.603248 10.335960 -16.804980
	686	1	-11.686467 12.919950 -14.937760
	687	1	-10.029632 10.335960 -14.004150
	688	1	-10.122705 12.919950 -12.136930
	689	1	-8.369128 10.335960 -16.804980
	690	1	-8.452347 12.919950 -14.937760
	691	1	-6.795512 10.335960 -14.004150
	692	1	-6.888585 12.919950 -12.136930
	693	1	-5.135008 10.335960 -16.804980
	694	1	-5.218227 12.919950 -14.937760
	695	1	-3.561392 10.335960 -14.004150
	696	1	-3.654465 12.919950 -12.136930
	697	1	-1.900888 10.335960 -16.804980
	698	1	-1.984107 12.919950 -14.937760
	699	1	-0.327272 10.335960 -14.004150
	700	1	-0.420345 12.919950 -12.136930
	701	1	1.333232 10.335960 -16.804980
	702	1	1.250013 12.919950 -14.937760
	703	1	2.906848 10.335960 -14.004150
	704	1	2.813775 12.919950 -12.136930
	705	1	4.567352 10.335960 -16.804980
	706	1	4.484133 12.919950 -14.937760
	707	1	6.140968 10.335960 -14.004150
	708	1	6.047895 12.919950 -12.136930
	709	1	7.801472 10.335960 -16.804980
	710	1	7.718253 12.919950 -14.937760
	711	1	9.375088 10.335960 -14.004150
	712	1	9.282015 12.919950 -12.136930
	713	1	11.035592 10.335960 -16.804980
	714	1	10.952373 12.919950 -14.937760
	715	1	12.609208 10.335960 -14.004150
	716	1	12.516135 12.919950 -12.136930
	717	1	14.269712 10.335960 -16.804980
	718	1	14.186493 12.919950 -14.937760
	719	1	15.843328 10.335960 -14.004150
	720	1	15.750255 12.919950 -12.136930
	721	1	-14.937089 15.503940 -16.804980
	722	1	-15.006754 18.087930 -14.937760
	723	1	-13.366884 15.503940 -14.004150
	724	1	-13.440810 18.087930 -12.136930
	725	1	-11.702969 15.503940 -16.804980
	726	1	-11.772634 18.087930 -14.937760
	727	1	-10.132764 15.503940 -14.004150
	728	1	-10.206690 18.087930 -12.136930
	729	1	-8.468849 15.503940 -16.804980
	730	1	-8.538514 18.087930 -14.937760
	731	1	-6.898644 15.503940 -14.004150
	732	1	-6.972570 18.087930 -12.136930
	733	1	-5.234729 15.503940 -16.804980
	734	1	-5.304394 18.087930 -14.937760
	735	1	-3.664524 15.503940 -14.004150
	736	1	-3.738450 18.087930 -12.136930
	737	1	-2.000609 15.503940 -16.804980
	738	1	-2.070274 18.087930 -14.937760
	739	1	-0.430404 15.503940 -14.004150
	740	1	-0.504330 18.087930 -12.136930
	741	1	1.233511 15.503940 -16.804980
	742	1	1.163846 18.087930 -14.937760
	743	1	2.803716 15.503940 -14.004150
	744	1	2.729790 18.087930 -12.136930
	745	1	4.467631 15.503940 -16.804980
	746	1	4.397966 18.087930 -14.937760
	747	1	6.037836 15.503940 -14.004150
	748	1	5.963910 18.087930 -12.136930
	749	1	7.701751 15.503940 -16.804980
	750	1	7.632086 18.087930 -14.937760
	751	1	9.271956 15.503940 -14.004150
	752	1	9.198030 18.087930 -12.136930
	753	1	10.935871 15.503940 -16.804980
	754	1	10.866206 18.087930 -14.937760
	755	1	12.506076 15.503940 -14.004150
	756	1	12.432150 18.087930 -12.136930
	757	1	14.169991 15.503940 -16.804980
	758	1	14.100326 18.087930 -14.937760
	759	1	15.740196 15.503940 -14.004150
	760	1	15.666270 18.087930 -12.136930
	761	1	-15.010728 20.671920 -16.804980
	762	1	-15.068183 23.255910 -14.937760
	763	1	-13.438527 20.671920 -14.004150
	764	1	-13.497425 23.255910 -12.136930
	765	1	-11.776608 20.671920 -16.804980
	766	1	-11.834063 23.255910 -14.937760
	767	1	-10.204407 20.671920 -14.004150
	768	1	-10.263305 23.255910 -12.136930
	769	1	-8.542488 20.671920 -16.804980
	770	1	-8.599943 23.255910 -14.937760
	771	1	-6.970287 20.671920 -14.004150
	772	1	-7.029185 23.255910 -12.136930
	773	1	-5.308368 20.671920 -16.804980
	774	1	-5.365823 23.255910 -14.937760
	775	1	-3.736167 20.671920 -14.004150
	776	1	-3.795065 23.255910 -12.136930
	777	1	-2.074248 20.671920 -16.804980
	778	1	-2.131703 23.255910 -14.937760
	779	1	-0.502047 20.671920 -14.004150
	780	1	-0.560945 23.255910 -12.136930
	781	1	1.159872 20.671920 -16.804980
	782	1	1.102417 23.255910 -14.937760
	783	1	2.732073 20.671920 -14.004150
	784	1	2.673175 23.255910 -12.136930