ITEM: TIMESTEP
0
ITEM: NUMBER OF ATOMS
3200
ITEM: BOX BOUNDS xy xz yz pp pp ss
-16.17060 16.17060 1.61706
-25.83990 25.81459 0.00000
-22.40664 22.40664 0.00000
ITEM: ATOMS id type x y z
1 1 -14.1127 -25.8399 -22.4066
2 1 -14.1174 -23.2559 -20.5394
3 1 -12.4620 -25.8399 -19.6058
4 1 -12.4634 -23.2559 -17.7386
5 1 -10.8786 -25.8399 -22.4066
6 1 -10.8833 -23.2559 -20.5394
7 1 -9.2279 -25.8399 -19.6058
8 1 -9.2292 -23.2559 -17.7386
9 1 -7.6445 -25.8399 -22.4066
10 1 -7.6491 -23.2559 -20.5394
11 1 -5.9938 -25.8399 -19.6058
12 1 -5.9951 -23.2559 -17.7386
13 1 -4.4103 -25.8399 -22.4066
14 1 -4.4150 -23.2559 -20.5394
15 1 -2.7597 -25.8399 -19.6058
16 1 -2.7610 -23.2559 -17.7386
17 1 -1.1762 -25.8399 -22.4066
18 1 -1.1809 -23.2559 -20.5394
19 1 0.4744 -25.8399 -19.6058
20 1 0.4731 -23.2559 -17.7386
21 1 2.0579 -25.8399 -22.4066
22 1 2.0532 -23.2559 -20.5394
23 1 3.7086 -25.8399 -19.6058
24 1 3.7072 -23.2559 -17.7386
25 1 5.2920 -25.8399 -22.4066
26 1 5.2873 -23.2559 -20.5394
27 1 6.9427 -25.8399 -19.6058
28 1 6.9414 -23.2559 -17.7386
29 1 8.5261 -25.8399 -22.4066
30 1 8.5215 -23.2559 -20.5394
31 1 10.1768 -25.8399 -19.6058
32 1 10.1755 -23.2559 -17.7386
33 1 11.7603 -25.8399 -22.4066
34 1 11.7556 -23.2559 -20.5394
35 1 13.4109 -25.8399 -19.6058
36 1 13.4096 -23.2559 -17.7386
37 1 14.9944 -25.8399 -22.4066
38 1 14.9897 -23.2559 -20.5394
39 1 -15.6962 -25.8399 -19.6058
40 1 -15.6975 -23.2559 -17.7386
41 1 -14.1700 -20.6719 -22.4066
42 1 -14.1819 -18.0879 -20.5394
43 1 -12.5186 -20.6719 -19.6058
44 1 -12.5272 -18.0879 -17.7386
45 1 -10.9359 -20.6719 -22.4066
46 1 -10.9478 -18.0879 -20.5394
47 1 -9.2845 -20.6719 -19.6058
48 1 -9.2931 -18.0879 -17.7386
49 1 -7.7018 -20.6719 -22.4066
50 1 -7.7137 -18.0879 -20.5394
51 1 -6.0504 -20.6719 -19.6058
52 1 -6.0590 -18.0879 -17.7386
53 1 -4.4676 -20.6719 -22.4066
54 1 -4.4795 -18.0879 -20.5394
55 1 -2.8162 -20.6719 -19.6058
56 1 -2.8248 -18.0879 -17.7386
57 1 -1.2335 -20.6719 -22.4066
58 1 -1.2454 -18.0879 -20.5394
59 1 0.4179 -20.6719 -19.6058
60 1 0.4093 -18.0879 -17.7386
61 1 2.0006 -20.6719 -22.4066
62 1 1.9887 -18.0879 -20.5394
63 1 3.6520 -20.6719 -19.6058
64 1 3.6434 -18.0879 -17.7386
65 1 5.2347 -20.6719 -22.4066
66 1 5.2228 -18.0879 -20.5394
67 1 6.8861 -20.6719 -19.6058
68 1 6.8775 -18.0879 -17.7386
69 1 8.4688 -20.6719 -22.4066
70 1 8.4569 -18.0879 -20.5394
71 1 10.1202 -20.6719 -19.6058
72 1 10.1116 -18.0879 -17.7386
73 1 11.7030 -20.6719 -22.4066
74 1 11.6911 -18.0879 -20.5394
75 1 13.3544 -20.6719 -19.6058
76 1 13.3458 -18.0879 -17.7386
77 1 14.9371 -20.6719 -22.4066
78 1 14.9252 -18.0879 -20.5394
79 1 -15.7527 -20.6719 -19.6058
80 1 -15.7613 -18.0879 -17.7386
81 1 -14.2420 -15.5039 -22.4066
82 1 -14.2645 -12.9200 -20.5394
83 1 -12.5921 -15.5039 -19.6058
84 1 -12.6125 -12.9200 -17.7386
85 1 -11.0079 -15.5039 -22.4066
86 1 -11.0304 -12.9200 -20.5394
87 1 -9.3580 -15.5039 -19.6058
88 1 -9.3783 -12.9200 -17.7386
89 1 -7.7737 -15.5039 -22.4066
90 1 -7.7963 -12.9200 -20.5394
91 1 -6.1238 -15.5039 -19.6058
92 1 -6.1442 -12.9200 -17.7386
93 1 -4.5396 -15.5039 -22.4066
94 1 -4.5622 -12.9200 -20.5394
95 1 -2.8897 -15.5039 -19.6058
96 1 -2.9101 -12.9200 -17.7386
97 1 -1.3055 -15.5039 -22.4066
98 1 -1.3280 -12.9200 -20.5394
99 1 0.3444 -15.5039 -19.6058
100 1 0.3240 -12.9200 -17.7386
101 1 1.9286 -15.5039 -22.4066
102 1 1.9061 -12.9200 -20.5394
103 1 3.5785 -15.5039 -19.6058
104 1 3.5581 -12.9200 -17.7386
105 1 5.1627 -15.5039 -22.4066
106 1 5.1402 -12.9200 -20.5394
107 1 6.8126 -15.5039 -19.6058
108 1 6.7923 -12.9200 -17.7386
109 1 8.3969 -15.5039 -22.4066
110 1 8.3743 -12.9200 -20.5394
111 1 10.0468 -15.5039 -19.6058
112 1 10.0264 -12.9200 -17.7386
113 1 11.6310 -15.5039 -22.4066
114 1 11.6084 -12.9200 -20.5394
115 1 13.2809 -15.5039 -19.6058
116 1 13.2605 -12.9200 -17.7386
117 1 14.8651 -15.5039 -22.4066
118 1 14.8426 -12.9200 -20.5394
119 1 -15.8262 -15.5039 -19.6058
120 1 -15.8466 -12.9200 -17.7386
121 1 -14.3311 -10.3360 -22.4066
122 1 -14.3678 -7.7520 -20.5394
123 1 -12.6868 -10.3360 -19.6058
124 1 -12.7244 -7.7520 -17.7386
125 1 -11.0970 -10.3360 -22.4066
126 1 -11.1337 -7.7520 -20.5394
127 1 -9.4526 -10.3360 -19.6058
128 1 -9.4903 -7.7520 -17.7386
129 1 -7.8628 -10.3360 -22.4066
130 1 -7.8995 -7.7520 -20.5394
131 1 -6.2185 -10.3360 -19.6058
132 1 -6.2562 -7.7520 -17.7386
133 1 -4.6287 -10.3360 -22.4066
134 1 -4.6654 -7.7520 -20.5394
135 1 -2.9844 -10.3360 -19.6058
136 1 -3.0221 -7.7520 -17.7386
137 1 -1.3946 -10.3360 -22.4066
138 1 -1.4313 -7.7520 -20.5394
139 1 0.2497 -10.3360 -19.6058
140 1 0.2121 -7.7520 -17.7386
141 1 1.8395 -10.3360 -22.4066
142 1 1.8028 -7.7520 -20.5394
143 1 3.4838 -10.3360 -19.6058
144 1 3.4462 -7.7520 -17.7386
145 1 5.0736 -10.3360 -22.4066
146 1 5.0369 -7.7520 -20.5394
147 1 6.7180 -10.3360 -19.6058
148 1 6.6803 -7.7520 -17.7386
149 1 8.3078 -10.3360 -22.4066
150 1 8.2711 -7.7520 -20.5394
151 1 9.9521 -10.3360 -19.6058
152 1 9.9144 -7.7520 -17.7386
153 1 11.5419 -10.3360 -22.4066
154 1 11.5052 -7.7520 -20.5394
155 1 13.1862 -10.3360 -19.6058
156 1 13.1485 -7.7520 -17.7386
157 1 14.7760 -10.3360 -22.4066
158 1 14.7393 -7.7520 -20.5394
159 1 -15.9209 -10.3360 -19.6058
160 1 -15.9585 -7.7520 -17.7386
161 1 -14.4369 -5.1680 -22.4066
162 1 -14.4891 -2.5840 -20.5394
163 1 -12.8038 -5.1680 -19.6058
164 1 -12.8620 -2.5840 -17.7386
165 1 -11.2027 -5.1680 -22.4066
166 1 -11.2550 -2.5840 -20.5394
167 1 -9.5697 -5.1680 -19.6058
168 1 -9.6279 -2.5840 -17.7386
169 1 -7.9686 -5.1680 -22.4066
170 1 -8.0209 -2.5840 -20.5394
171 1 -6.3356 -5.1680 -19.6058
172 1 -6.3938 -2.5840 -17.7386
173 1 -4.7345 -5.1680 -22.4066
174 1 -4.7868 -2.5840 -20.5394
175 1 -3.1015 -5.1680 -19.6058
176 1 -3.1597 -2.5840 -17.7386
177 1 -1.5004 -5.1680 -22.4066
178 1 -1.5526 -2.5840 -20.5394
179 1 0.1327 -5.1680 -19.6058
180 1 0.0745 -2.5840 -17.7386
181 1 1.7337 -5.1680 -22.4066
182 1 1.6815 -2.5840 -20.5394
183 1 3.3668 -5.1680 -19.6058
184 1 3.3086 -2.5840 -17.7386
185 1 4.9679 -5.1680 -22.4066
186 1 4.9156 -2.5840 -20.5394
187 1 6.6009 -5.1680 -19.6058
188 1 6.5427 -2.5840 -17.7386
189 1 8.2020 -5.1680 -22.4066
190 1 8.1497 -2.5840 -20.5394
191 1 9.8350 -5.1680 -19.6058
192 1 9.7768 -2.5840 -17.7386
193 1 11.4361 -5.1680 -22.4066
194 1 11.3838 -2.5840 -20.5394
195 1 13.0691 -5.1680 -19.6058
196 1 13.0109 -2.5840 -17.7386
197 1 14.6702 -5.1680 -22.4066
198 1 14.6180 -2.5840 -20.5394
199 1 -16.0379 -5.1680 -19.6058
200 1 -16.0961 -2.5840 -17.7386
201 1 -14.5535 0.0000 -22.4066
202 1 -14.6180 2.5840 -20.5394
203 1 -12.9365 0.0000 -19.6058
204 1 -13.0109 2.5840 -17.7386
205 1 -11.3194 0.0000 -22.4066
206 1 -11.3838 2.5840 -20.5394
207 1 -9.7024 0.0000 -19.6058
208 1 -9.7768 2.5840 -17.7386
209 1 -8.0853 0.0000 -22.4066
210 1 -8.1497 2.5840 -20.5394
211 1 -6.4682 0.0000 -19.6058
212 1 -6.5427 2.5840 -17.7386
213 1 -4.8512 0.0000 -22.4066
214 1 -4.9156 2.5840 -20.5394
215 1 -3.2341 0.0000 -19.6058
216 1 -3.3086 2.5840 -17.7386
217 1 -1.6171 0.0000 -22.4066
218 1 -1.6815 2.5840 -20.5394
219 1 0.0000 0.0000 -19.6058
220 1 -0.0745 2.5840 -17.7386
221 1 1.6171 0.0000 -22.4066
222 1 1.5526 2.5840 -20.5394
223 1 3.2341 0.0000 -19.6058
224 1 3.1597 2.5840 -17.7386
225 1 4.8512 0.0000 -22.4066
226 1 4.7868 2.5840 -20.5394
227 1 6.4682 0.0000 -19.6058
228 1 6.3938 2.5840 -17.7386
229 1 8.0853 0.0000 -22.4066
230 1 8.0209 2.5840 -20.5394
231 1 9.7024 0.0000 -19.6058
232 1 9.6279 2.5840 -17.7386
233 1 11.3194 0.0000 -22.4066
234 1 11.2550 2.5840 -20.5394
235 1 12.9365 0.0000 -19.6058
236 1 12.8620 2.5840 -17.7386
237 1 14.5535 0.0000 -22.4066
238 1 14.4891 2.5840 -20.5394
239 1 -16.1706 0.0000 -19.6058
240 1 16.0961 2.5840 -17.7386
241 1 -14.6702 5.1680 -22.4066
242 1 -14.7393 7.7520 -20.5394
243 1 -13.0691 5.1680 -19.6058
244 1 -13.1485 7.7520 -17.7386
245 1 -11.4361 5.1680 -22.4066
246 1 -11.5052 7.7520 -20.5394
247 1 -9.8350 5.1680 -19.6058
248 1 -9.9144 7.7520 -17.7386
249 1 -8.2020 5.1680 -22.4066
250 1 -8.2711 7.7520 -20.5394
251 1 -6.6009 5.1680 -19.6058
252 1 -6.6803 7.7520 -17.7386
253 1 -4.9679 5.1680 -22.4066
254 1 -5.0369 7.7520 -20.5394
255 1 -3.3668 5.1680 -19.6058
256 1 -3.4462 7.7520 -17.7386
257 1 -1.7337 5.1680 -22.4066
258 1 -1.8028 7.7520 -20.5394
259 1 -0.1327 5.1680 -19.6058
260 1 -0.2121 7.7520 -17.7386
261 1 1.5004 5.1680 -22.4066
262 1 1.4313 7.7520 -20.5394
263 1 3.1015 5.1680 -19.6058
264 1 3.0221 7.7520 -17.7386
265 1 4.7345 5.1680 -22.4066
266 1 4.6654 7.7520 -20.5394
267 1 6.3356 5.1680 -19.6058
268 1 6.2562 7.7520 -17.7386
269 1 7.9686 5.1680 -22.4066
270 1 7.8995 7.7520 -20.5394
271 1 9.5697 5.1680 -19.6058
272 1 9.4903 7.7520 -17.7386
273 1 11.2027 5.1680 -22.4066
274 1 11.1337 7.7520 -20.5394
275 1 12.8038 5.1680 -19.6058
276 1 12.7244 7.7520 -17.7386
277 1 14.4369 5.1680 -22.4066
278 1 14.3678 7.7520 -20.5394
279 1 16.0379 5.1680 -19.6058
280 1 15.9585 7.7520 -17.7386
281 1 -14.7760 10.3360 -22.4066
282 1 -14.8426 12.9200 -20.5394
283 1 -13.1862 10.3360 -19.6058
284 1 -13.2605 12.9200 -17.7386
285 1 -11.5419 10.3360 -22.4066
286 1 -11.6084 12.9200 -20.5394
287 1 -9.9521 10.3360 -19.6058
288 1 -10.0264 12.9200 -17.7386
289 1 -8.3078 10.3360 -22.4066
290 1 -8.3743 12.9200 -20.5394
291 1 -6.7180 10.3360 -19.6058
292 1 -6.7923 12.9200 -17.7386
293 1 -5.0736 10.3360 -22.4066
294 1 -5.1402 12.9200 -20.5394
295 1 -3.4838 10.3360 -19.6058
296 1 -3.5581 12.9200 -17.7386
297 1 -1.8395 10.3360 -22.4066
298 1 -1.9061 12.9200 -20.5394
299 1 -0.2497 10.3360 -19.6058
300 1 -0.3240 12.9200 -17.7386
301 1 1.3946 10.3360 -22.4066
302 1 1.3280 12.9200 -20.5394
303 1 2.9844 10.3360 -19.6058
304 1 2.9101 12.9200 -17.7386
305 1 4.6287 10.3360 -22.4066
306 1 4.5622 12.9200 -20.5394
307 1 6.2185 10.3360 -19.6058
308 1 6.1442 12.9200 -17.7386
309 1 7.8628 10.3360 -22.4066
310 1 7.7963 12.9200 -20.5394
311 1 9.4526 10.3360 -19.6058
312 1 9.3783 12.9200 -17.7386
313 1 11.0970 10.3360 -22.4066
314 1 11.0304 12.9200 -20.5394
315 1 12.6868 10.3360 -19.6058
316 1 12.6125 12.9200 -17.7386
317 1 14.3311 10.3360 -22.4066
318 1 14.2645 12.9200 -20.5394
319 1 15.9209 10.3360 -19.6058
320 1 15.8466 12.9200 -17.7386
321 1 -14.8651 15.5039 -22.4066
322 1 -14.9252 18.0879 -20.5394
323 1 -13.2809 15.5039 -19.6058
324 1 -13.3458 18.0879 -17.7386
325 1 -11.6310 15.5039 -22.4066
326 1 -11.6911 18.0879 -20.5394
327 1 -10.0468 15.5039 -19.6058
328 1 -10.1116 18.0879 -17.7386
329 1 -8.3969 15.5039 -22.4066
330 1 -8.4569 18.0879 -20.5394
331 1 -6.8126 15.5039 -19.6058
332 1 -6.8775 18.0879 -17.7386
333 1 -5.1627 15.5039 -22.4066
334 1 -5.2228 18.0879 -20.5394
335 1 -3.5785 15.5039 -19.6058
336 1 -3.6434 18.0879 -17.7386
337 1 -1.9286 15.5039 -22.4066
338 1 -1.9887 18.0879 -20.5394
339 1 -0.3444 15.5039 -19.6058
340 1 -0.4093 18.0879 -17.7386
341 1 1.3055 15.5039 -22.4066
342 1 1.2454 18.0879 -20.5394
343 1 2.8897 15.5039 -19.6058
344 1 2.8248 18.0879 -17.7386
345 1 4.5396 15.5039 -22.4066
346 1 4.4795 18.0879 -20.5394
347 1 6.1238 15.5039 -19.6058
348 1 6.0590 18.0879 -17.7386
349 1 7.7737 15.5039 -22.4066
350 1 7.7137 18.0879 -20.5394
351 1 9.3580 15.5039 -19.6058
352 1 9.2931 18.0879 -17.7386
353 1 11.0079 15.5039 -22.4066
354 1 10.9478 18.0879 -20.5394
355 1 12.5921 15.5039 -19.6058
356 1 12.5272 18.0879 -17.7386
357 1 14.2420 15.5039 -22.4066
358 1 14.1819 18.0879 -20.5394
359 1 15.8262 15.5039 -19.6058
360 1 15.7613 18.0879 -17.7386
361 1 -14.9371 20.6719 -22.4066
362 1 -14.9897 23.2559 -20.5394
363 1 -13.3544 20.6719 -19.6058
364 1 -13.4096 23.2559 -17.7386
365 1 -11.7030 20.6719 -22.4066
366 1 -11.7556 23.2559 -20.5394
367 1 -10.1202 20.6719 -19.6058
368 1 -10.1755 23.2559 -17.7386
369 1 -8.4688 20.6719 -22.4066
370 1 -8.5215 23.2559 -20.5394
371 1 -6.8861 20.6719 -19.6058
372 1 -6.9414 23.2559 -17.7386
373 1 -5.2347 20.6719 -22.4066
374 1 -5.2873 23.2559 -20.5394
375 1 -3.6520 20.6719 -19.6058
376 1 -3.7072 23.2559 -17.7386
377 1 -2.0006 20.6719 -22.4066
378 1 -2.0532 23.2559 -20.5394
379 1 -0.4179 20.6719 -19.6058
380 1 -0.4731 23.2559 -17.7386
381 1 1.2335 20.6719 -22.4066
382 1 1.1809 23.2559 -20.5394
383 1 2.8162 20.6719 -19.6058
384 1 2.7610 23.2559 -17.7386
385 1 4.4676 20.6719 -22.4066
386 1 4.4150 23.2559 -20.5394
387 1 6.0504 20.6719 -19.6058
388 1 5.9951 23.2559 -17.7386
389 1 7.7018 20.6719 -22.4066
390 1 7.6491 23.2559 -20.5394
391 1 9.2845 20.6719 -19.6058
392 1 9.2292 23.2559 -17.7386
393 1 10.9359 20.6719 -22.4066
394 1 10.8833 23.2559 -20.5394
395 1 12.5186 20.6719 -19.6058
396 1 12.4634 23.2559 -17.7386
397 1 14.1700 20.6719 -22.4066
398 1 14.1174 23.2559 -20.5394
399 1 15.7527 20.6719 -19.6058
400 1 15.6975 23.2559 -17.7386
401 1 -14.0418 -25.8399 -16.8050
402 1 -14.0389 -23.2559 -14.9378
403 1 -12.3836 -25.8399 -14.0042
404 1 -12.3755 -23.2559 -12.1369
405 1 -10.8077 -25.8399 -16.8050
406 1 -10.8048 -23.2559 -14.9378
407 1 -9.1495 -25.8399 -14.0042
408 1 -9.1414 -23.2559 -12.1369
409 1 -7.5736 -25.8399 -16.8050
410 1 -7.5707 -23.2559 -14.9378
411 1 -5.9153 -25.8399 -14.0042
412 1 -5.9073 -23.2559 -12.1369
413 1 -4.3395 -25.8399 -16.8050
414 1 -4.3365 -23.2559 -14.9378
415 1 -2.6812 -25.8399 -14.0042
416 1 -2.6732 -23.2559 -12.1369
417 1 -1.1053 -25.8399 -16.8050
418 1 -1.1024 -23.2559 -14.9378
419 1 0.5529 -25.8399 -14.0042
420 1 0.5609 -23.2559 -12.1369
421 1 2.1288 -25.8399 -16.8050
422 1 2.1317 -23.2559 -14.9378
423 1 3.7870 -25.8399 -14.0042
424 1 3.7951 -23.2559 -12.1369
425 1 5.3629 -25.8399 -16.8050
426 1 5.3658 -23.2559 -14.9378
427 1 7.0211 -25.8399 -14.0042
428 1 7.0292 -23.2559 -12.1369
429 1 8.5970 -25.8399 -16.8050
430 1 8.5999 -23.2559 -14.9378
431 1 10.2553 -25.8399 -14.0042
432 1 10.2633 -23.2559 -12.1369
433 1 11.8311 -25.8399 -16.8050
434 1 11.8341 -23.2559 -14.9378
435 1 13.4894 -25.8399 -14.0042
436 1 13.4974 -23.2559 -12.1369
437 1 15.0653 -25.8399 -16.8050
438 1 15.0682 -23.2559 -14.9378
439 1 -15.6177 -25.8399 -14.0042
440 1 -15.6097 -23.2559 -12.1369
441 1 -14.0964 -20.6719 -16.8050
442 1 -14.1003 -18.0879 -14.9378
443 1 -12.4344 -20.6719 -14.0042
444 1 -12.4322 -18.0879 -12.1369
445 1 -10.8622 -20.6719 -16.8050
446 1 -10.8662 -18.0879 -14.9378
447 1 -9.2003 -20.6719 -14.0042
448 1 -9.1980 -18.0879 -12.1369
449 1 -7.6281 -20.6719 -16.8050
450 1 -7.6321 -18.0879 -14.9378
451 1 -5.9662 -20.6719 -14.0042
452 1 -5.9639 -18.0879 -12.1369
453 1 -4.3940 -20.6719 -16.8050
454 1 -4.3980 -18.0879 -14.9378
455 1 -2.7321 -20.6719 -14.0042
456 1 -2.7298 -18.0879 -12.1369
457 1 -1.1599 -20.6719 -16.8050
458 1 -1.1638 -18.0879 -14.9378
459 1 0.5020 -20.6719 -14.0042
460 1 0.5043 -18.0879 -12.1369
461 1 2.0742 -20.6719 -16.8050
462 1 2.0703 -18.0879 -14.9378
463 1 3.7362 -20.6719 -14.0042
464 1 3.7384 -18.0879 -12.1369
465 1 5.3084 -20.6719 -16.8050
466 1 5.3044 -18.0879 -14.9378
467 1 6.9703 -20.6719 -14.0042
468 1 6.9726 -18.0879 -12.1369
469 1 8.5425 -20.6719 -16.8050
470 1 8.5385 -18.0879 -14.9378
471 1 10.2044 -20.6719 -14.0042
472 1 10.2067 -18.0879 -12.1369
473 1 11.7766 -20.6719 -16.8050
474 1 11.7726 -18.0879 -14.9378
475 1 13.4385 -20.6719 -14.0042
476 1 13.4408 -18.0879 -12.1369
477 1 15.0107 -20.6719 -16.8050
478 1 15.0068 -18.0879 -14.9378
479 1 -15.6686 -20.6719 -14.0042
480 1 -15.6663 -18.0879 -12.1369
481 1 -14.1700 -15.5039 -16.8050
482 1 -14.1865 -12.9200 -14.9378
483 1 -12.5061 -15.5039 -14.0042
484 1 -12.5161 -12.9200 -12.1369
485 1 -10.9359 -15.5039 -16.8050
486 1 -10.9524 -12.9200 -14.9378
487 1 -9.2720 -15.5039 -14.0042
488 1 -9.2820 -12.9200 -12.1369
489 1 -7.7018 -15.5039 -16.8050
490 1 -7.7183 -12.9200 -14.9378
491 1 -6.0378 -15.5039 -14.0042
492 1 -6.0479 -12.9200 -12.1369
493 1 -4.4676 -15.5039 -16.8050
494 1 -4.4841 -12.9200 -14.9378
495 1 -2.8037 -15.5039 -14.0042
496 1 -2.8138 -12.9200 -12.1369
497 1 -1.2335 -15.5039 -16.8050
498 1 -1.2500 -12.9200 -14.9378
499 1 0.4304 -15.5039 -14.0042
500 1 0.4203 -12.9200 -12.1369
501 1 2.0006 -15.5039 -16.8050
502 1 1.9841 -12.9200 -14.9378
503 1 3.6645 -15.5039 -14.0042
504 1 3.6545 -12.9200 -12.1369
505 1 5.2347 -15.5039 -16.8050
506 1 5.2182 -12.9200 -14.9378
507 1 6.8986 -15.5039 -14.0042
508 1 6.8886 -12.9200 -12.1369
509 1 8.4688 -15.5039 -16.8050
510 1 8.4523 -12.9200 -14.9378
511 1 10.1328 -15.5039 -14.0042
512 1 10.1227 -12.9200 -12.1369
513 1 11.7030 -15.5039 -16.8050
514 1 11.6865 -12.9200 -14.9378
515 1 13.3669 -15.5039 -14.0042
516 1 13.3568 -12.9200 -12.1369
517 1 14.9371 -15.5039 -16.8050
518 1 14.9206 -12.9200 -14.9378
519 1 -15.7402 -15.5039 -14.0042
520 1 -15.7503 -12.9200 -12.1369
521 1 -14.2697 -10.3360 -16.8050
522 1 -14.3071 -7.7520 -14.9378
523 1 -12.6092 -10.3360 -14.0042
524 1 -12.6439 -7.7520 -12.1369
525 1 -11.0356 -10.3360 -16.8050
526 1 -11.0730 -7.7520 -14.9378
527 1 -9.3751 -10.3360 -14.0042
528 1 -9.4098 -7.7520 -12.1369
529 1 -7.8015 -10.3360 -16.8050
530 1 -7.8389 -7.7520 -14.9378
531 1 -6.1410 -10.3360 -14.0042
532 1 -6.1757 -7.7520 -12.1369
533 1 -4.5674 -10.3360 -16.8050
534 1 -4.6048 -7.7520 -14.9378
535 1 -2.9068 -10.3360 -14.0042
536 1 -2.9416 -7.7520 -12.1369
537 1 -1.3332 -10.3360 -16.8050
538 1 -1.3707 -7.7520 -14.9378
539 1 0.3273 -10.3360 -14.0042
540 1 0.2926 -7.7520 -12.1369
541 1 1.9009 -10.3360 -16.8050
542 1 1.8635 -7.7520 -14.9378
543 1 3.5614 -10.3360 -14.0042
544 1 3.5267 -7.7520 -12.1369
545 1 5.1350 -10.3360 -16.8050
546 1 5.0976 -7.7520 -14.9378
547 1 6.7955 -10.3360 -14.0042
548 1 6.7608 -7.7520 -12.1369
549 1 8.3691 -10.3360 -16.8050
550 1 8.3317 -7.7520 -14.9378
551 1 10.0296 -10.3360 -14.0042
552 1 9.9949 -7.7520 -12.1369
553 1 11.6032 -10.3360 -16.8050
554 1 11.5658 -7.7520 -14.9378
555 1 13.2638 -10.3360 -14.0042
556 1 13.2290 -7.7520 -12.1369
557 1 14.8374 -10.3360 -16.8050
558 1 14.7999 -7.7520 -14.9378
559 1 -15.8433 -10.3360 -14.0042
560 1 -15.8780 -7.7520 -12.1369
561 1 -14.4000 -5.1680 -16.8050
562 1 -14.4654 -2.5840 -14.9378
563 1 -12.7545 -5.1680 -14.0042
564 1 -12.8285 -2.5840 -12.1369
565 1 -11.1659 -5.1680 -16.8050
566 1 -11.2313 -2.5840 -14.9378
567 1 -9.5204 -5.1680 -14.0042
568 1 -9.5944 -2.5840 -12.1369
569 1 -7.9317 -5.1680 -16.8050
570 1 -7.9971 -2.5840 -14.9378
571 1 -6.2863 -5.1680 -14.0042
572 1 -6.3603 -2.5840 -12.1369
573 1 -4.6976 -5.1680 -16.8050
574 1 -4.7630 -2.5840 -14.9378
575 1 -3.0521 -5.1680 -14.0042
576 1 -3.1261 -2.5840 -12.1369
577 1 -1.4635 -5.1680 -16.8050
578 1 -1.5289 -2.5840 -14.9378
579 1 0.1820 -5.1680 -14.0042
580 1 0.1080 -2.5840 -12.1369
581 1 1.7706 -5.1680 -16.8050
582 1 1.7052 -2.5840 -14.9378
583 1 3.4161 -5.1680 -14.0042
584 1 3.3421 -2.5840 -12.1369
585 1 5.0047 -5.1680 -16.8050
586 1 4.9393 -2.5840 -14.9378
587 1 6.6502 -5.1680 -14.0042
588 1 6.5762 -2.5840 -12.1369
589 1 8.2389 -5.1680 -16.8050
590 1 8.1735 -2.5840 -14.9378
591 1 9.8843 -5.1680 -14.0042
592 1 9.8103 -2.5840 -12.1369
593 1 11.4730 -5.1680 -16.8050
594 1 11.4076 -2.5840 -14.9378
595 1 13.1185 -5.1680 -14.0042
596 1 13.0445 -2.5840 -12.1369
597 1 14.7071 -5.1680 -16.8050
598 1 14.6417 -2.5840 -14.9378
599 1 -15.9886 -5.1680 -14.0042
600 1 -16.0626 -2.5840 -12.1369
601 1 -14.5535 0.0000 -16.8050
602 1 -14.6417 2.5840 -14.9378
603 1 -12.9365 0.0000 -14.0042
604 1 -13.0445 2.5840 -12.1369
605 1 -11.3194 0.0000 -16.8050
606 1 -11.4076 2.5840 -14.9378
607 1 -9.7024 0.0000 -14.0042
608 1 -9.8103 2.5840 -12.1369
609 1 -8.0853 0.0000 -16.8050
610 1 -8.1735 2.5840 -14.9378
611 1 -6.4682 0.0000 -14.0042
612 1 -6.5762 2.5840 -12.1369
613 1 -4.8512 0.0000 -16.8050
614 1 -4.9393 2.5840 -14.9378
615 1 -3.2341 0.0000 -14.0042
616 1 -3.3421 2.5840 -12.1369
617 1 -1.6171 0.0000 -16.8050
618 1 -1.7052 2.5840 -14.9378
619 1 0.0000 0.0000 -14.0042
620 1 -0.1080 2.5840 -12.1369
621 1 1.6171 0.0000 -16.8050
622 1 1.5289 2.5840 -14.9378
623 1 3.2341 0.0000 -14.0042
624 1 3.1261 2.5840 -12.1369
625 1 4.8512 0.0000 -16.8050
626 1 4.7630 2.5840 -14.9378
627 1 6.4682 0.0000 -14.0042
628 1 6.3603 2.5840 -12.1369
629 1 8.0853 0.0000 -16.8050
630 1 7.9971 2.5840 -14.9378
631 1 9.7024 0.0000 -14.0042
632 1 9.5944 2.5840 -12.1369
633 1 11.3194 0.0000 -16.8050
634 1 11.2313 2.5840 -14.9378
635 1 12.9365 0.0000 -14.0042
636 1 12.8285 2.5840 -12.1369
637 1 14.5535 0.0000 -16.8050
638 1 14.4654 2.5840 -14.9378
639 1 -16.1706 0.0000 -14.0042
640 1 16.0626 2.5840 -12.1369
641 1 -14.7071 5.1680 -16.8050
642 1 -14.7999 7.7520 -14.9378
643 1 -13.1185 5.1680 -14.0042
644 1 -13.2290 7.7520 -12.1369
645 1 -11.4730 5.1680 -16.8050
646 1 -11.5658 7.7520 -14.9378
647 1 -9.8843 5.1680 -14.0042
648 1 -9.9949 7.7520 -12.1369
649 1 -8.2389 5.1680 -16.8050
650 1 -8.3317 7.7520 -14.9378
651 1 -6.6502 5.1680 -14.0042
652 1 -6.7608 7.7520 -12.1369
653 1 -5.0047 5.1680 -16.8050
654 1 -5.0976 7.7520 -14.9378
655 1 -3.4161 5.1680 -14.0042
656 1 -3.5267 7.7520 -12.1369
657 1 -1.7706 5.1680 -16.8050
658 1 -1.8635 7.7520 -14.9378
659 1 -0.1820 5.1680 -14.0042
660 1 -0.2926 7.7520 -12.1369
661 1 1.4635 5.1680 -16.8050
662 1 1.3707 7.7520 -14.9378
663 1 3.0521 5.1680 -14.0042
664 1 2.9416 7.7520 -12.1369
665 1 4.6976 5.1680 -16.8050
666 1 4.6048 7.7520 -14.9378
667 1 6.2863 5.1680 -14.0042
668 1 6.1757 7.7520 -12.1369
669 1 7.9317 5.1680 -16.8050
670 1 7.8389 7.7520 -14.9378
671 1 9.5204 5.1680 -14.0042
672 1 9.4098 7.7520 -12.1369
673 1 11.1659 5.1680 -16.8050
674 1 11.0730 7.7520 -14.9378
675 1 12.7545 5.1680 -14.0042
676 1 12.6439 7.7520 -12.1369
677 1 14.4000 5.1680 -16.8050
678 1 14.3071 7.7520 -14.9378
679 1 15.9886 5.1680 -14.0042
680 1 15.8780 7.7520 -12.1369
681 1 -14.8374 10.3360 -16.8050
682 1 -14.9206 12.9200 -14.9378
683 1 -13.2638 10.3360 -14.0042
684 1 -13.3568 12.9200 -12.1369
685 1 -11.6032 10.3360 -16.8050
686 1 -11.6865 12.9200 -14.9378
687 1 -10.0296 10.3360 -14.0042
688 1 -10.1227 12.9200 -12.1369
689 1 -8.3691 10.3360 -16.8050
690 1 -8.4523 12.9200 -14.9378
691 1 -6.7955 10.3360 -14.0042
692 1 -6.8886 12.9200 -12.1369
693 1 -5.1350 10.3360 -16.8050
694 1 -5.2182 12.9200 -14.9378
695 1 -3.5614 10.3360 -14.0042
696 1 -3.6545 12.9200 -12.1369
697 1 -1.9009 10.3360 -16.8050
698 1 -1.9841 12.9200 -14.9378
699 1 -0.3273 10.3360 -14.0042
700 1 -0.4203 12.9200 -12.1369
701 1 1.3332 10.3360 -16.8050
702 1 1.2500 12.9200 -14.9378
703 1 2.9068 10.3360 -14.0042
704 1 2.8138 12.9200 -12.1369
705 1 4.5674 10.3360 -16.8050
706 1 4.4841 12.9200 -14.9378
707 1 6.1410 10.3360 -14.0042
708 1 6.0479 12.9200 -12.1369
709 1 7.8015 10.3360 -16.8050
710 1 7.7183 12.9200 -14.9378
711 1 9.3751 10.3360 -14.0042
712 1 9.2820 12.9200 -12.1369
713 1 11.0356 10.3360 -16.8050
714 1 10.9524 12.9200 -14.9378
715 1 12.6092 10.3360 -14.0042
716 1 12.5161 12.9200 -12.1369
717 1 14.2697 10.3360 -16.8050
718 1 14.1865 12.9200 -14.9378
719 1 15.8433 10.3360 -14.0042
720 1 15.7503 12.9200 -12.1369
721 1 -14.9371 15.5039 -16.8050
722 1 -15.0068 18.0879 -14.9378
723 1 -13.3669 15.5039 -14.0042
724 1 -13.4408 18.0879 -12.1369
725 1 -11.7030 15.5039 -16.8050
726 1 -11.7726 18.0879 -14.9378
727 1 -10.1328 15.5039 -14.0042
728 1 -10.2067 18.0879 -12.1369
729 1 -8.4688 15.5039 -16.8050
730 1 -8.5385 18.0879 -14.9378
731 1 -6.8986 15.5039 -14.0042
732 1 -6.9726 18.0879 -12.1369
733 1 -5.2347 15.5039 -16.8050
734 1 -5.3044 18.0879 -14.9378
735 1 -3.6645 15.5039 -14.0042
736 1 -3.7384 18.0879 -12.1369
737 1 -2.0006 15.5039 -16.8050
738 1 -2.0703 18.0879 -14.9378
739 1 -0.4304 15.5039 -14.0042
740 1 -0.5043 18.0879 -12.1369
741 1 1.2335 15.5039 -16.8050
742 1 1.1638 18.0879 -14.9378
743 1 2.8037 15.5039 -14.0042
744 1 2.7298 18.0879 -12.1369
745 1 4.4676 15.5039 -16.8050
746 1 4.3980 18.0879 -14.9378
747 1 6.0378 15.5039 -14.0042
748 1 5.9639 18.0879 -12.1369
749 1 7.7018 15.5039 -16.8050
750 1 7.6321 18.0879 -14.9378
751 1 9.2720 15.5039 -14.0042
752 1 9.1980 18.0879 -12.1369
753 1 10.9359 15.5039 -16.8050
754 1 10.8662 18.0879 -14.9378
755 1 12.5061 15.5039 -14.0042
756 1 12.4322 18.0879 -12.1369
757 1 14.1700 15.5039 -16.8050
758 1 14.1003 18.0879 -14.9378
759 1 15.7402 15.5039 -14.0042
760 1 15.6663 18.0879 -12.1369
761 1 -15.0107 20.6719 -16.8050
762 1 -15.0682 23.2559 -14.9378
763 1 -13.4385 20.6719 -14.0042
764 1 -13.4974 23.2559 -12.1369
765 1 -11.7766 20.6719 -16.8050
766 1 -11.8341 23.2559 -14.9378
767 1 -10.2044 20.6719 -14.0042
768 1 -10.2633 23.2559 -12.1369
769 1 -8.5425 20.6719 -16.8050
770 1 -8.5999 23.2559 -14.9378
771 1 -6.9703 20.6719 -14.0042
772 1 -7.0292 23.2559 -12.1369
773 1 -5.3084 20.6719 -16.8050
774 1 -5.3658 23.2559 -14.9378
775 1 -3.7362 20.6719 -14.0042
776 1 -3.7951 23.2559 -12.1369
777 1 -2.0742 20.6719 -16.8050
778 1 -2.1317 23.2559 -14.9378
779 1 -0.5020 20.6719 -14.0042
780 1 -0.5609 23.2559 -12.1369
781 1 1.1599 20.6719 -16.8050
782 1 1.1024 23.2559 -14.9378
783 1 2.7321 20.6719 -14.0042
784 1 2.6732 23.2559 -12.1369
785 1 4.3940 20.6719 -16.8050
786 1 4.3365 23.2559 -14.9378
787 1 5.9662 20.6719 -14.0042
788 1 5.9073 23.2559 -12.1369
789 1 7.6281 20.6719 -16.8050
790 1 7.5707 23.2559 -14.9378
791 1 9.2003 20.6719 -14.0042
792 1 9.1414 23.2559 -12.1369
793 1 10.8622 20.6719 -16.8050
794 1 10.8048 23.2559 -14.9378
795 1 12.4344 20.6719 -14.0042
796 1 12.3755 23.2559 -12.1369
797 1 14.0964 20.6719 -16.8050
798 1 14.0389 23.2559 -14.9378
799 1 15.6686 20.6719 -14.0042
800 1 15.6097 23.2559 -12.1369
801 1 -13.9556 -25.8399 -11.2033
802 1 -13.9415 -23.2559 -9.3361
803 1 -12.2898 -25.8399 -8.4025
804 1 -12.2690 -23.2559 -6.5353
805 1 -10.7215 -25.8399 -11.2033
806 1 -10.7074 -23.2559 -9.3361
807 1 -9.0557 -25.8399 -8.4025
808 1 -9.0348 -23.2559 -6.5353
809 1 -7.4873 -25.8399 -11.2033
810 1 -7.4733 -23.2559 -9.3361
811 1 -5.8215 -25.8399 -8.4025
812 1 -5.8007 -23.2559 -6.5353
813 1 -4.2532 -25.8399 -11.2033
814 1 -4.2391 -23.2559 -9.3361
815 1 -2.5874 -25.8399 -8.4025
816 1 -2.5666 -23.2559 -6.5353
817 1 -1.0191 -25.8399 -11.2033
818 1 -1.0050 -23.2559 -9.3361
819 1 0.6467 -25.8399 -8.4025
820 1 0.6675 -23.2559 -6.5353
821 1 2.2150 -25.8399 -11.2033
822 1 2.2291 -23.2559 -9.3361
823 1 3.8808 -25.8399 -8.4025
824 1 3.9016 -23.2559 -6.5353
825 1 5.4491 -25.8399 -11.2033
826 1 5.4632 -23.2559 -9.3361
827 1 7.1149 -25.8399 -8.4025
828 1 7.1358 -23.2559 -6.5353
829 1 8.6833 -25.8399 -11.2033
830 1 8.6973 -23.2559 -9.3361
831 1 10.3491 -25.8399 -8.4025
832 1 10.3699 -23.2559 -6.5353
833 1 11.9174 -25.8399 -11.2033
834 1 11.9315 -23.2559 -9.3361
835 1 13.5832 -25.8399 -8.4025
836 1 13.6040 -23.2559 -6.5353
837 1 15.1515 -25.8399 -11.2033
838 1 15.1656 -23.2559 -9.3361
839 1 -15.5239 -25.8399 -8.4025
840 1 -15.5031 -23.2559 -6.5353
841 1 -14.0006 -20.6719 -11.2033
842 1 -13.9903 -18.0879 -9.3361
843 1 -12.3267 -20.6719 -8.4025
844 1 -12.3064 -18.0879 -6.5353
845 1 -10.7665 -20.6719 -11.2033
846 1 -10.7561 -18.0879 -9.3361
847 1 -9.0926 -20.6719 -8.4025
848 1 -9.0723 -18.0879 -6.5353
849 1 -7.5324 -20.6719 -11.2033
850 1 -7.5220 -18.0879 -9.3361
851 1 -5.8584 -20.6719 -8.4025
852 1 -5.8382 -18.0879 -6.5353
853 1 -4.2983 -20.6719 -11.2033
854 1 -4.2879 -18.0879 -9.3361
855 1 -2.6243 -20.6719 -8.4025
856 1 -2.6041 -18.0879 -6.5353
857 1 -1.0642 -20.6719 -11.2033
858 1 -1.0538 -18.0879 -9.3361
859 1 0.6098 -20.6719 -8.4025
860 1 0.6301 -18.0879 -6.5353
861 1 2.1700 -20.6719 -11.2033
862 1 2.1803 -18.0879 -9.3361
863 1 3.8439 -20.6719 -8.4025
864 1 3.8642 -18.0879 -6.5353
865 1 5.4041 -20.6719 -11.2033
866 1 5.4145 -18.0879 -9.3361
867 1 7.0780 -20.6719 -8.4025
868 1 7.0983 -18.0879 -6.5353
869 1 8.6382 -20.6719 -11.2033
870 1 8.6486 -18.0879 -9.3361
871 1 10.3122 -20.6719 -8.4025
872 1 10.3324 -18.0879 -6.5353
873 1 11.8723 -20.6719 -11.2033
874 1 11.8827 -18.0879 -9.3361
875 1 13.5463 -20.6719 -8.4025
876 1 13.5665 -18.0879 -6.5353
877 1 15.1064 -20.6719 -11.2033
878 1 15.1168 -18.0879 -9.3361
879 1 -15.5608 -20.6719 -8.4025
880 1 -15.5405 -18.0879 -6.5353
881 1 -14.0671 -15.5039 -11.2033
882 1 -14.0671 -12.9200 -9.3361
883 1 -12.3836 -15.5039 -8.4025
884 1 -12.3690 -12.9200 -6.5353
885 1 -10.8330 -15.5039 -11.2033
886 1 -10.8330 -12.9200 -9.3361
887 1 -9.1495 -15.5039 -8.4025
888 1 -9.1349 -12.9200 -6.5353
889 1 -7.5989 -15.5039 -11.2033
890 1 -7.5989 -12.9200 -9.3361
891 1 -5.9153 -15.5039 -8.4025
892 1 -5.9008 -12.9200 -6.5353
893 1 -4.3647 -15.5039 -11.2033
894 1 -4.3647 -12.9200 -9.3361
895 1 -2.6812 -15.5039 -8.4025
896 1 -2.6666 -12.9200 -6.5353
897 1 -1.1306 -15.5039 -11.2033
898 1 -1.1306 -12.9200 -9.3361
899 1 0.5529 -15.5039 -8.4025
900 1 0.5675 -12.9200 -6.5353
901 1 2.1035 -15.5039 -11.2033
902 1 2.1035 -12.9200 -9.3361
903 1 3.7870 -15.5039 -8.4025
904 1 3.8016 -12.9200 -6.5353
905 1 5.3376 -15.5039 -11.2033
906 1 5.3376 -12.9200 -9.3361
907 1 7.0211 -15.5039 -8.4025
908 1 7.0357 -12.9200 -6.5353
909 1 8.5717 -15.5039 -11.2033
910 1 8.5717 -12.9200 -9.3361
911 1 10.2553 -15.5039 -8.4025
912 1 10.2698 -12.9200 -6.5353
913 1 11.8059 -15.5039 -11.2033
914 1 11.8059 -12.9200 -9.3361
915 1 13.4894 -15.5039 -8.4025
916 1 13.5040 -12.9200 -6.5353
917 1 15.0400 -15.5039 -11.2033
918 1 15.0400 -12.9200 -9.3361
919 1 -15.6177 -15.5039 -8.4025
920 1 -15.6031 -12.9200 -6.5353
921 1 -14.1700 -10.3360 -11.2033
922 1 -14.1969 -7.7520 -9.3361
923 1 -12.4793 -10.3360 -8.4025
924 1 -12.4885 -7.7520 -6.5353
925 1 -10.9359 -10.3360 -11.2033
926 1 -10.9627 -7.7520 -9.3361
927 1 -9.2452 -10.3360 -8.4025
928 1 -9.2544 -7.7520 -6.5353
929 1 -7.7018 -10.3360 -11.2033
930 1 -7.7286 -7.7520 -9.3361
931 1 -6.0111 -10.3360 -8.4025
932 1 -6.0202 -7.7520 -6.5353
933 1 -4.4676 -10.3360 -11.2033
934 1 -4.4945 -7.7520 -9.3361
935 1 -2.7769 -10.3360 -8.4025
936 1 -2.7861 -7.7520 -6.5353
937 1 -1.2335 -10.3360 -11.2033
938 1 -1.2604 -7.7520 -9.3361
939 1 0.4572 -10.3360 -8.4025
940 1 0.4480 -7.7520 -6.5353
941 1 2.0006 -10.3360 -11.2033
942 1 1.9737 -7.7520 -9.3361
943 1 3.6913 -10.3360 -8.4025
944 1 3.6821 -7.7520 -6.5353
945 1 5.2347 -10.3360 -11.2033
946 1 5.2079 -7.7520 -9.3361
947 1 6.9254 -10.3360 -8.4025
948 1 6.9162 -7.7520 -6.5353
949 1 8.4688 -10.3360 -11.2033
950 1 8.4420 -7.7520 -9.3361
951 1 10.1595 -10.3360 -8.4025
952 1 10.1504 -7.7520 -6.5353
953 1 11.7030 -10.3360 -11.2033
954 1 11.6761 -7.7520 -9.3361
955 1 13.3937 -10.3360 -8.4025
956 1 13.3845 -7.7520 -6.5353
957 1 14.9371 -10.3360 -11.2033
958 1 14.9102 -7.7520 -9.3361
959 1 -15.7134 -10.3360 -8.4025
960 1 -15.7226 -7.7520 -6.5353
961 1 -14.3311 -5.1680 -11.2033
962 1 -14.4146 -2.5840 -9.3361
963 1 -12.6527 -5.1680 -8.4025
964 1 -12.7427 -2.5840 -6.5353