ITEM: TIMESTEP
0
ITEM: NUMBER OF ATOMS
990
ITEM: BOX BOUNDS pp pp ss
-25.87296 24.25590
0.00000 10.33596
-22.40664 22.40664
ITEM: ATOMS id type x y z
1 1 -25.8730 0.0000 -22.4066
2 1 -25.8730 2.5840 -20.5394
3 1 -24.2020 0.0000 -19.6058
4 1 -24.2020 2.5840 -17.7386
5 1 -22.5310 0.0000 -22.4066
6 1 -22.5310 2.5840 -20.5394
7 1 -20.8601 0.0000 -19.6058
8 1 -20.8601 2.5840 -17.7386
9 1 -19.1891 0.0000 -22.4066
10 1 -19.1891 2.5840 -20.5394
11 1 -17.5181 0.0000 -19.6058
12 1 -17.5181 2.5840 -17.7386
13 1 -15.8472 0.0000 -22.4066
14 1 -15.8472 2.5840 -20.5394
15 1 -14.1762 0.0000 -19.6058
16 1 -14.1762 2.5840 -17.7386
17 1 -12.5053 0.0000 -22.4066
18 1 -12.5053 2.5840 -20.5394
19 1 -10.8343 0.0000 -19.6058
20 1 -10.8343 2.5840 -17.7386
21 1 -9.1633 0.0000 -22.4066
22 1 -9.1633 2.5840 -20.5394
23 1 -7.4924 0.0000 -19.6058
24 1 -7.4924 2.5840 -17.7386
25 1 -5.8214 0.0000 -22.4066
26 1 -5.8214 2.5840 -20.5394
27 1 -4.1505 0.0000 -19.6058
28 1 -4.1505 2.5840 -17.7386
29 1 -2.4795 0.0000 -22.4066
30 1 -2.4795 2.5840 -20.5394
31 1 -0.8085 0.0000 -19.6058
32 1 -0.8085 2.5840 -17.7386
33 1 0.8624 0.0000 -22.4066
34 1 0.8624 2.5840 -20.5394
35 1 2.5334 0.0000 -19.6058
36 1 2.5334 2.5840 -17.7386
37 1 4.2044 0.0000 -22.4066
38 1 4.2044 2.5840 -20.5394
39 1 5.8753 0.0000 -19.6058
40 1 5.8753 2.5840 -17.7386
41 1 7.5463 0.0000 -22.4066
42 1 7.5463 2.5840 -20.5394
43 1 9.2172 0.0000 -19.6058
44 1 9.2172 2.5840 -17.7386
45 1 10.8882 0.0000 -22.4066
46 1 10.8882 2.5840 -20.5394
47 1 12.5592 0.0000 -19.6058
48 1 12.5592 2.5840 -17.7386
49 1 14.2301 0.0000 -22.4066
50 1 14.2301 2.5840 -20.5394
51 1 15.9011 0.0000 -19.6058
52 1 15.9011 2.5840 -17.7386
53 1 17.5721 0.0000 -22.4066
54 1 17.5721 2.5840 -20.5394
55 1 19.2430 0.0000 -19.6058
56 1 19.2430 2.5840 -17.7386
57 1 20.9140 0.0000 -22.4066
58 1 20.9140 2.5840 -20.5394
59 1 22.5849 0.0000 -19.6058
60 1 22.5849 2.5840 -17.7386
61 1 -25.8730 5.1680 -22.4066
62 1 -25.8730 7.7520 -20.5394
63 1 -24.2020 5.1680 -19.6058
64 1 -24.2020 7.7520 -17.7386
65 1 -22.5310 5.1680 -22.4066
66 1 -22.5310 7.7520 -20.5394
67 1 -20.8601 5.1680 -19.6058
68 1 -20.8601 7.7520 -17.7386
69 1 -19.1891 5.1680 -22.4066
70 1 -19.1891 7.7520 -20.5394
71 1 -17.5181 5.1680 -19.6058
72 1 -17.5181 7.7520 -17.7386
73 1 -15.8472 5.1680 -22.4066
74 1 -15.8472 7.7520 -20.5394
75 1 -14.1762 5.1680 -19.6058
76 1 -14.1762 7.7520 -17.7386
77 1 -12.5053 5.1680 -22.4066
78 1 -12.5053 7.7520 -20.5394
79 1 -10.8343 5.1680 -19.6058
80 1 -10.8343 7.7520 -17.7386
81 1 -9.1633 5.1680 -22.4066
82 1 -9.1633 7.7520 -20.5394
83 1 -7.4924 5.1680 -19.6058
84 1 -7.4924 7.7520 -17.7386
85 1 -5.8214 5.1680 -22.4066
86 1 -5.8214 7.7520 -20.5394
87 1 -4.1505 5.1680 -19.6058
88 1 -4.1505 7.7520 -17.7386
89 1 -2.4795 5.1680 -22.4066
90 1 -2.4795 7.7520 -20.5394
91 1 -0.8085 5.1680 -19.6058
92 1 -0.8085 7.7520 -17.7386
93 1 0.8624 5.1680 -22.4066
94 1 0.8624 7.7520 -20.5394
95 1 2.5334 5.1680 -19.6058
96 1 2.5334 7.7520 -17.7386
97 1 4.2044 5.1680 -22.4066
98 1 4.2044 7.7520 -20.5394
99 1 5.8753 5.1680 -19.6058
100 1 5.8753 7.7520 -17.7386
101 1 7.5463 5.1680 -22.4066
102 1 7.5463 7.7520 -20.5394
103 1 9.2172 5.1680 -19.6058
104 1 9.2172 7.7520 -17.7386
105 1 10.8882 5.1680 -22.4066
106 1 10.8882 7.7520 -20.5394
107 1 12.5592 5.1680 -19.6058
108 1 12.5592 7.7520 -17.7386
109 1 14.2301 5.1680 -22.4066
110 1 14.2301 7.7520 -20.5394
111 1 15.9011 5.1680 -19.6058
112 1 15.9011 7.7520 -17.7386
113 1 17.5721 5.1680 -22.4066
114 1 17.5721 7.7520 -20.5394
115 1 19.2430 5.1680 -19.6058
116 1 19.2430 7.7520 -17.7386
117 1 20.9140 5.1680 -22.4066
118 1 20.9140 7.7520 -20.5394
119 1 22.5849 5.1680 -19.6058
120 1 22.5849 7.7520 -17.7386
121 1 -25.8730 0.0000 -16.8050
122 1 -25.8730 2.5840 -14.9378
123 1 -24.2020 0.0000 -14.0042
124 1 -24.2020 2.5840 -12.1369
125 1 -22.5310 0.0000 -16.8050
126 1 -22.5310 2.5840 -14.9378
127 1 -20.8601 0.0000 -14.0042
128 1 -20.8601 2.5840 -12.1369
129 1 -19.1891 0.0000 -16.8050
130 1 -19.1891 2.5840 -14.9378
131 1 -17.5181 0.0000 -14.0042
132 1 -17.5181 2.5840 -12.1369
133 1 -15.8472 0.0000 -16.8050
134 1 -15.8472 2.5840 -14.9378
135 1 -14.1762 0.0000 -14.0042
136 1 -14.1762 2.5840 -12.1369
137 1 -12.5053 0.0000 -16.8050
138 1 -12.5053 2.5840 -14.9378
139 1 -10.8343 0.0000 -14.0042
140 1 -10.8343 2.5840 -12.1369
141 1 -9.1633 0.0000 -16.8050
142 1 -9.1633 2.5840 -14.9378
143 1 -7.4924 0.0000 -14.0042
144 1 -7.4924 2.5840 -12.1369
145 1 -5.8214 0.0000 -16.8050
146 1 -5.8214 2.5840 -14.9378
147 1 -4.1505 0.0000 -14.0042
148 1 -4.1505 2.5840 -12.1369
149 1 -2.4795 0.0000 -16.8050
150 1 -2.4795 2.5840 -14.9378
151 1 -0.8085 0.0000 -14.0042
152 1 -0.8085 2.5840 -12.1369
153 1 0.8624 0.0000 -16.8050
154 1 0.8624 2.5840 -14.9378
155 1 2.5334 0.0000 -14.0042
156 1 2.5334 2.5840 -12.1369
157 1 4.2044 0.0000 -16.8050
158 1 4.2044 2.5840 -14.9378
159 1 5.8753 0.0000 -14.0042
160 1 5.8753 2.5840 -12.1369
161 1 7.5463 0.0000 -16.8050
162 1 7.5463 2.5840 -14.9378
163 1 9.2172 0.0000 -14.0042
164 1 9.2172 2.5840 -12.1369
165 1 10.8882 0.0000 -16.8050
166 1 10.8882 2.5840 -14.9378
167 1 12.5592 0.0000 -14.0042
168 1 12.5592 2.5840 -12.1369
169 1 14.2301 0.0000 -16.8050
170 1 14.2301 2.5840 -14.9378
171 1 15.9011 0.0000 -14.0042
172 1 15.9011 2.5840 -12.1369
173 1 17.5721 0.0000 -16.8050
174 1 17.5721 2.5840 -14.9378
175 1 19.2430 0.0000 -14.0042
176 1 19.2430 2.5840 -12.1369
177 1 20.9140 0.0000 -16.8050
178 1 20.9140 2.5840 -14.9378
179 1 22.5849 0.0000 -14.0042
180 1 22.5849 2.5840 -12.1369
181 1 -25.8730 5.1680 -16.8050
182 1 -25.8730 7.7520 -14.9378
183 1 -24.2020 5.1680 -14.0042
184 1 -24.2020 7.7520 -12.1369
185 1 -22.5310 5.1680 -16.8050
186 1 -22.5310 7.7520 -14.9378
187 1 -20.8601 5.1680 -14.0042
188 1 -20.8601 7.7520 -12.1369
189 1 -19.1891 5.1680 -16.8050
190 1 -19.1891 7.7520 -14.9378
191 1 -17.5181 5.1680 -14.0042
192 1 -17.5181 7.7520 -12.1369
193 1 -15.8472 5.1680 -16.8050
194 1 -15.8472 7.7520 -14.9378
195 1 -14.1762 5.1680 -14.0042
196 1 -14.1762 7.7520 -12.1369
197 1 -12.5053 5.1680 -16.8050
198 1 -12.5053 7.7520 -14.9378
199 1 -10.8343 5.1680 -14.0042
200 1 -10.8343 7.7520 -12.1369
201 1 -9.1633 5.1680 -16.8050
202 1 -9.1633 7.7520 -14.9378
203 1 -7.4924 5.1680 -14.0042
204 1 -7.4924 7.7520 -12.1369
205 1 -5.8214 5.1680 -16.8050
206 1 -5.8214 7.7520 -14.9378
207 1 -4.1505 5.1680 -14.0042
208 1 -4.1505 7.7520 -12.1369
209 1 -2.4795 5.1680 -16.8050
210 1 -2.4795 7.7520 -14.9378
211 1 -0.8085 5.1680 -14.0042
212 1 -0.8085 7.7520 -12.1369
213 1 0.8624 5.1680 -16.8050
214 1 0.8624 7.7520 -14.9378
215 1 2.5334 5.1680 -14.0042
216 1 2.5334 7.7520 -12.1369
217 1 4.2044 5.1680 -16.8050
218 1 4.2044 7.7520 -14.9378
219 1 5.8753 5.1680 -14.0042
220 1 5.8753 7.7520 -12.1369
221 1 7.5463 5.1680 -16.8050
222 1 7.5463 7.7520 -14.9378
223 1 9.2172 5.1680 -14.0042
224 1 9.2172 7.7520 -12.1369
225 1 10.8882 5.1680 -16.8050
226 1 10.8882 7.7520 -14.9378
227 1 12.5592 5.1680 -14.0042
228 1 12.5592 7.7520 -12.1369
229 1 14.2301 5.1680 -16.8050
230 1 14.2301 7.7520 -14.9378
231 1 15.9011 5.1680 -14.0042
232 1 15.9011 7.7520 -12.1369
233 1 17.5721 5.1680 -16.8050
234 1 17.5721 7.7520 -14.9378
235 1 19.2430 5.1680 -14.0042
236 1 19.2430 7.7520 -12.1369
237 1 20.9140 5.1680 -16.8050
238 1 20.9140 7.7520 -14.9378
239 1 22.5849 5.1680 -14.0042
240 1 22.5849 7.7520 -12.1369
241 1 -25.8730 0.0000 -11.2033
242 1 -25.8730 2.5840 -9.3361
243 1 -24.2020 0.0000 -8.4025
244 1 -24.2020 2.5840 -6.5353
245 1 -22.5310 0.0000 -11.2033
246 1 -22.5310 2.5840 -9.3361
247 1 -20.8601 0.0000 -8.4025
248 1 -20.8601 2.5840 -6.5353
249 1 -19.1891 0.0000 -11.2033
250 1 -19.1891 2.5840 -9.3361
251 1 -17.5181 0.0000 -8.4025
252 1 -17.5181 2.5840 -6.5353
253 1 -15.8472 0.0000 -11.2033
254 1 -15.8472 2.5840 -9.3361
255 1 -14.1762 0.0000 -8.4025
256 1 -14.1762 2.5840 -6.5353
257 1 -12.5053 0.0000 -11.2033
258 1 -12.5053 2.5840 -9.3361
259 1 -10.8343 0.0000 -8.4025
260 1 -10.8343 2.5840 -6.5353
261 1 -9.1633 0.0000 -11.2033
262 1 -9.1633 2.5840 -9.3361
263 1 -7.4924 0.0000 -8.4025
264 1 -7.4924 2.5840 -6.5353
265 1 -5.8214 0.0000 -11.2033
266 1 -5.8214 2.5840 -9.3361
267 1 -4.1505 0.0000 -8.4025
268 1 -4.1505 2.5840 -6.5353
269 1 -2.4795 0.0000 -11.2033
270 1 -2.4795 2.5840 -9.3361
271 1 -0.8085 0.0000 -8.4025
272 1 -0.8085 2.5840 -6.5353
273 1 0.8624 0.0000 -11.2033
274 1 0.8624 2.5840 -9.3361
275 1 2.5334 0.0000 -8.4025
276 1 2.5334 2.5840 -6.5353
277 1 4.2044 0.0000 -11.2033
278 1 4.2044 2.5840 -9.3361
279 1 5.8753 0.0000 -8.4025
280 1 5.8753 2.5840 -6.5353
281 1 7.5463 0.0000 -11.2033
282 1 7.5463 2.5840 -9.3361
283 1 9.2172 0.0000 -8.4025
284 1 9.2172 2.5840 -6.5353
285 1 10.8882 0.0000 -11.2033
286 1 10.8882 2.5840 -9.3361
287 1 12.5592 0.0000 -8.4025
288 1 12.5592 2.5840 -6.5353
289 1 14.2301 0.0000 -11.2033
290 1 14.2301 2.5840 -9.3361
291 1 15.9011 0.0000 -8.4025
292 1 15.9011 2.5840 -6.5353
293 1 17.5721 0.0000 -11.2033
294 1 17.5721 2.5840 -9.3361
295 1 19.2430 0.0000 -8.4025
296 1 19.2430 2.5840 -6.5353
297 1 20.9140 0.0000 -11.2033
298 1 20.9140 2.5840 -9.3361
299 1 22.5849 0.0000 -8.4025
300 1 22.5849 2.5840 -6.5353
301 1 -25.8730 5.1680 -11.2033
302 1 -25.8730 7.7520 -9.3361
303 1 -24.2020 5.1680 -8.4025
304 1 -24.2020 7.7520 -6.5353
305 1 -22.5310 5.1680 -11.2033
306 1 -22.5310 7.7520 -9.3361
307 1 -20.8601 5.1680 -8.4025
308 1 -20.8601 7.7520 -6.5353
309 1 -19.1891 5.1680 -11.2033
310 1 -19.1891 7.7520 -9.3361
311 1 -17.5181 5.1680 -8.4025
312 1 -17.5181 7.7520 -6.5353
313 1 -15.8472 5.1680 -11.2033
314 1 -15.8472 7.7520 -9.3361
315 1 -14.1762 5.1680 -8.4025
316 1 -14.1762 7.7520 -6.5353
317 1 -12.5053 5.1680 -11.2033
318 1 -12.5053 7.7520 -9.3361
319 1 -10.8343 5.1680 -8.4025
320 1 -10.8343 7.7520 -6.5353
321 1 -9.1633 5.1680 -11.2033
322 1 -9.1633 7.7520 -9.3361
323 1 -7.4924 5.1680 -8.4025
324 1 -7.4924 7.7520 -6.5353
325 1 -5.8214 5.1680 -11.2033
326 1 -5.8214 7.7520 -9.3361
327 1 -4.1505 5.1680 -8.4025
328 1 -4.1505 7.7520 -6.5353
329 1 -2.4795 5.1680 -11.2033
330 1 -2.4795 7.7520 -9.3361
331 1 -0.8085 5.1680 -8.4025
332 1 -0.8085 7.7520 -6.5353
333 1 0.8624 5.1680 -11.2033
334 1 0.8624 7.7520 -9.3361
335 1 2.5334 5.1680 -8.4025
336 1 2.5334 7.7520 -6.5353
337 1 4.2044 5.1680 -11.2033
338 1 4.2044 7.7520 -9.3361
339 1 5.8753 5.1680 -8.4025
340 1 5.8753 7.7520 -6.5353
341 1 7.5463 5.1680 -11.2033
342 1 7.5463 7.7520 -9.3361
343 1 9.2172 5.1680 -8.4025
344 1 9.2172 7.7520 -6.5353
345 1 10.8882 5.1680 -11.2033
346 1 10.8882 7.7520 -9.3361
347 1 12.5592 5.1680 -8.4025
348 1 12.5592 7.7520 -6.5353
349 1 14.2301 5.1680 -11.2033
350 1 14.2301 7.7520 -9.3361
351 1 15.9011 5.1680 -8.4025
352 1 15.9011 7.7520 -6.5353
353 1 17.5721 5.1680 -11.2033
354 1 17.5721 7.7520 -9.3361
355 1 19.2430 5.1680 -8.4025
356 1 19.2430 7.7520 -6.5353
357 1 20.9140 5.1680 -11.2033
358 1 20.9140 7.7520 -9.3361
359 1 22.5849 5.1680 -8.4025
360 1 22.5849 7.7520 -6.5353
361 1 -25.8730 0.0000 -5.6017
362 1 -25.8730 2.5840 -3.7344
363 1 -24.2020 0.0000 -2.8008
364 1 -24.2020 2.5840 -0.9336
365 1 -22.5310 0.0000 -5.6017
366 1 -22.5310 2.5840 -3.7344
367 1 -20.8601 0.0000 -2.8008
368 1 -20.8601 2.5840 -0.9336
369 1 -19.1891 0.0000 -5.6017
370 1 -19.1891 2.5840 -3.7344
371 1 -17.5181 0.0000 -2.8008
372 1 -17.5181 2.5840 -0.9336
373 1 -15.8472 0.0000 -5.6017
374 1 -15.8472 2.5840 -3.7344
375 1 -14.1762 0.0000 -2.8008
376 1 -14.1762 2.5840 -0.9336
377 1 -12.5053 0.0000 -5.6017
378 1 -12.5053 2.5840 -3.7344
379 1 -10.8343 0.0000 -2.8008
380 1 -10.8343 2.5840 -0.9336
381 1 -9.1633 0.0000 -5.6017
382 1 -9.1633 2.5840 -3.7344
383 1 -7.4924 0.0000 -2.8008
384 1 -7.4924 2.5840 -0.9336
385 1 -5.8214 0.0000 -5.6017
386 1 -5.8214 2.5840 -3.7344
387 1 -4.1505 0.0000 -2.8008
388 1 -4.1505 2.5840 -0.9336
389 1 -2.4795 0.0000 -5.6017
390 1 -2.4795 2.5840 -3.7344
391 1 -0.8085 0.0000 -2.8008
392 1 -0.8085 2.5840 -0.9336
393 1 0.8624 0.0000 -5.6017
394 1 0.8624 2.5840 -3.7344
395 1 2.5334 0.0000 -2.8008
396 1 2.5334 2.5840 -0.9336
397 1 4.2044 0.0000 -5.6017
398 1 4.2044 2.5840 -3.7344
399 1 5.8753 0.0000 -2.8008
400 1 5.8753 2.5840 -0.9336
401 1 7.5463 0.0000 -5.6017
402 1 7.5463 2.5840 -3.7344
403 1 9.2172 0.0000 -2.8008
404 1 9.2172 2.5840 -0.9336
405 1 10.8882 0.0000 -5.6017
406 1 10.8882 2.5840 -3.7344
407 1 12.5592 0.0000 -2.8008
408 1 12.5592 2.5840 -0.9336
409 1 14.2301 0.0000 -5.6017
410 1 14.2301 2.5840 -3.7344
411 1 15.9011 0.0000 -2.8008
412 1 15.9011 2.5840 -0.9336
413 1 17.5721 0.0000 -5.6017
414 1 17.5721 2.5840 -3.7344
415 1 19.2430 0.0000 -2.8008
416 1 19.2430 2.5840 -0.9336
417 1 20.9140 0.0000 -5.6017
418 1 20.9140 2.5840 -3.7344
419 1 22.5849 0.0000 -2.8008
420 1 22.5849 2.5840 -0.9336
421 1 -25.8730 5.1680 -5.6017
422 1 -25.8730 7.7520 -3.7344
423 1 -24.2020 5.1680 -2.8008
424 1 -24.2020 7.7520 -0.9336
425 1 -22.5310 5.1680 -5.6017
426 1 -22.5310 7.7520 -3.7344
427 1 -20.8601 5.1680 -2.8008
428 1 -20.8601 7.7520 -0.9336
429 1 -19.1891 5.1680 -5.6017
430 1 -19.1891 7.7520 -3.7344
431 1 -17.5181 5.1680 -2.8008
432 1 -17.5181 7.7520 -0.9336
433 1 -15.8472 5.1680 -5.6017
434 1 -15.8472 7.7520 -3.7344
435 1 -14.1762 5.1680 -2.8008
436 1 -14.1762 7.7520 -0.9336
437 1 -12.5053 5.1680 -5.6017
438 1 -12.5053 7.7520 -3.7344
439 1 -10.8343 5.1680 -2.8008
440 1 -10.8343 7.7520 -0.9336
441 1 -9.1633 5.1680 -5.6017
442 1 -9.1633 7.7520 -3.7344
443 1 -7.4924 5.1680 -2.8008
444 1 -7.4924 7.7520 -0.9336
445 1 -5.8214 5.1680 -5.6017
446 1 -5.8214 7.7520 -3.7344
447 1 -4.1505 5.1680 -2.8008
448 1 -4.1505 7.7520 -0.9336
449 1 -2.4795 5.1680 -5.6017
450 1 -2.4795 7.7520 -3.7344
451 1 -0.8085 5.1680 -2.8008
452 1 -0.8085 7.7520 -0.9336
453 1 0.8624 5.1680 -5.6017
454 1 0.8624 7.7520 -3.7344
455 1 2.5334 5.1680 -2.8008
456 1 2.5334 7.7520 -0.9336
457 1 4.2044 5.1680 -5.6017
458 1 4.2044 7.7520 -3.7344
459 1 5.8753 5.1680 -2.8008
460 1 5.8753 7.7520 -0.9336
461 1 7.5463 5.1680 -5.6017
462 1 7.5463 7.7520 -3.7344
463 1 9.2172 5.1680 -2.8008
464 1 9.2172 7.7520 -0.9336
465 1 10.8882 5.1680 -5.6017
466 1 10.8882 7.7520 -3.7344
467 1 12.5592 5.1680 -2.8008
468 1 12.5592 7.7520 -0.9336
469 1 14.2301 5.1680 -5.6017
470 1 14.2301 7.7520 -3.7344
471 1 15.9011 5.1680 -2.8008
472 1 15.9011 7.7520 -0.9336
473 1 17.5721 5.1680 -5.6017
474 1 17.5721 7.7520 -3.7344
475 1 19.2430 5.1680 -2.8008
476 1 19.2430 7.7520 -0.9336
477 1 20.9140 5.1680 -5.6017
478 1 20.9140 7.7520 -3.7344
479 1 22.5849 5.1680 -2.8008
480 1 22.5849 7.7520 -0.9336
481 1 -25.8730 0.0000 0.0000
482 1 -25.8730 2.5840 1.8672
483 1 -24.3064 0.0000 2.8008
484 1 -24.3064 2.5840 4.6681
485 1 -22.5310 0.0000 0.0000
486 1 -22.7399 2.5840 1.8672
487 1 -21.1734 0.0000 2.8008
488 1 -21.1734 2.5840 4.6681
489 1 -19.1891 0.0000 0.0000
490 1 -19.6069 2.5840 1.8672
491 1 -18.0403 0.0000 2.8008
492 1 -18.0403 2.5840 4.6681
493 1 -15.8472 0.0000 0.0000
494 1 -16.4738 2.5840 1.8672
495 1 -14.9073 0.0000 2.8008
496 1 -14.9073 2.5840 4.6681
497 1 -12.5053 0.0000 0.0000
498 1 -13.3407 2.5840 1.8672
499 1 -11.7742 0.0000 2.8008
500 1 -11.7742 2.5840 4.6681
501 1 -9.1633 0.0000 0.0000
502 1 -10.2077 2.5840 1.8672
503 1 -8.6412 0.0000 2.8008
504 1 -8.6412 2.5840 4.6681
505 1 -5.8214 0.0000 0.0000
506 1 -7.0746 2.5840 1.8672
507 1 -5.5081 0.0000 2.8008
508 1 -5.5081 2.5840 4.6681
509 1 -2.4795 0.0000 0.0000
510 1 -3.9416 2.5840 1.8672
511 1 -2.3751 0.0000 2.8008
512 1 -2.3751 2.5840 4.6681
513 1 0.8624 0.0000 0.0000
514 1 -0.8085 2.5840 1.8672
515 1 0.7580 0.0000 2.8008
516 1 0.7580 2.5840 4.6681
517 1 4.2044 0.0000 0.0000
518 1 2.3245 2.5840 1.8672
519 1 3.8911 0.0000 2.8008
520 1 3.8911 2.5840 4.6681
521 1 7.5463 0.0000 0.0000
522 1 5.4576 2.5840 1.8672
523 1 7.0241 0.0000 2.8008
524 1 7.0241 2.5840 4.6681
525 1 10.8882 0.0000 0.0000
526 1 8.5906 2.5840 1.8672
527 1 10.1572 0.0000 2.8008
528 1 10.1572 2.5840 4.6681
529 1 14.2301 0.0000 0.0000
530 1 11.7237 2.5840 1.8672
531 1 13.2902 0.0000 2.8008
532 1 13.2902 2.5840 4.6681
533 1 17.5721 0.0000 0.0000
534 1 14.8567 2.5840 1.8672
535 1 16.4233 0.0000 2.8008
536 1 16.4233 2.5840 4.6681
537 1 20.9140 0.0000 0.0000
538 1 17.9898 2.5840 1.8672
539 1 19.5563 0.0000 2.8008
540 1 19.5563 2.5840 4.6681
541 1 21.1228 2.5840 1.8672
542 1 22.6894 0.0000 2.8008
543 1 22.6894 2.5840 4.6681
544 1 -25.8730 5.1680 0.0000
545 1 -25.8730 7.7520 1.8672
546 1 -24.3064 5.1680 2.8008
547 1 -24.3064 7.7520 4.6681
548 1 -22.5310 5.1680 0.0000
549 1 -22.7399 7.7520 1.8672
550 1 -21.1734 5.1680 2.8008
551 1 -21.1734 7.7520 4.6681
552 1 -19.1891 5.1680 0.0000
553 1 -19.6069 7.7520 1.8672
554 1 -18.0403 5.1680 2.8008
555 1 -18.0403 7.7520 4.6681
556 1 -15.8472 5.1680 0.0000
557 1 -16.4738 7.7520 1.8672
558 1 -14.9073 5.1680 2.8008
559 1 -14.9073 7.7520 4.6681
560 1 -12.5053 5.1680 0.0000
561 1 -13.3407 7.7520 1.8672
562 1 -11.7742 5.1680 2.8008
563 1 -11.7742 7.7520 4.6681
564 1 -9.1633 5.1680 0.0000
565 1 -10.2077 7.7520 1.8672
566 1 -8.6412 5.1680 2.8008
567 1 -8.6412 7.7520 4.6681
568 1 -5.8214 5.1680 0.0000
569 1 -7.0746 7.7520 1.8672
570 1 -5.5081 5.1680 2.8008
571 1 -5.5081 7.7520 4.6681
572 1 -2.4795 5.1680 0.0000
573 1 -3.9416 7.7520 1.8672
574 1 -2.3751 5.1680 2.8008
575 1 -2.3751 7.7520 4.6681
576 1 0.8624 5.1680 0.0000
577 1 -0.8085 7.7520 1.8672
578 1 0.7580 5.1680 2.8008
579 1 0.7580 7.7520 4.6681
580 1 4.2044 5.1680 0.0000
581 1 2.3245 7.7520 1.8672
582 1 3.8911 5.1680 2.8008
583 1 3.8911 7.7520 4.6681
584 1 7.5463 5.1680 0.0000
585 1 5.4576 7.7520 1.8672
586 1 7.0241 5.1680 2.8008
587 1 7.0241 7.7520 4.6681
588 1 10.8882 5.1680 0.0000
589 1 8.5906 7.7520 1.8672
590 1 10.1572 5.1680 2.8008
591 1 10.1572 7.7520 4.6681
592 1 14.2301 5.1680 0.0000
593 1 11.7237 7.7520 1.8672
594 1 13.2902 5.1680 2.8008
595 1 13.2902 7.7520 4.6681
596 1 17.5721 5.1680 0.0000
597 1 14.8567 7.7520 1.8672
598 1 16.4233 5.1680 2.8008
599 1 16.4233 7.7520 4.6681
600 1 20.9140 5.1680 0.0000
601 1 17.9898 7.7520 1.8672
602 1 19.5563 5.1680 2.8008
603 1 19.5563 7.7520 4.6681
604 1 21.1228 7.7520 1.8672
605 1 22.6894 5.1680 2.8008
606 1 22.6894 7.7520 4.6681
607 1 -25.8730 0.0000 5.6017
608 1 -25.8730 2.5840 7.4689
609 1 -24.3064 0.0000 8.4025
610 1 -24.3064 2.5840 10.2697
611 1 -22.7399 0.0000 5.6017
612 1 -22.7399 2.5840 7.4689
613 1 -21.1734 0.0000 8.4025
614 1 -21.1734 2.5840 10.2697
615 1 -19.6069 0.0000 5.6017
616 1 -19.6069 2.5840 7.4689
617 1 -18.0403 0.0000 8.4025
618 1 -18.0403 2.5840 10.2697
619 1 -16.4738 0.0000 5.6017
620 1 -16.4738 2.5840 7.4689
621 1 -14.9073 0.0000 8.4025
622 1 -14.9073 2.5840 10.2697
623 1 -13.3407 0.0000 5.6017
624 1 -13.3407 2.5840 7.4689
625 1 -11.7742 0.0000 8.4025
626 1 -11.7742 2.5840 10.2697
627 1 -10.2077 0.0000 5.6017
628 1 -10.2077 2.5840 7.4689
629 1 -8.6412 0.0000 8.4025
630 1 -8.6412 2.5840 10.2697
631 1 -7.0746 0.0000 5.6017
632 1 -7.0746 2.5840 7.4689
633 1 -5.5081 0.0000 8.4025
634 1 -5.5081 2.5840 10.2697
635 1 -3.9416 0.0000 5.6017
636 1 -3.9416 2.5840 7.4689
637 1 -2.3751 0.0000 8.4025
638 1 -2.3751 2.5840 10.2697
639 1 -0.8085 0.0000 5.6017
640 1 -0.8085 2.5840 7.4689
641 1 0.7580 0.0000 8.4025
642 1 0.7580 2.5840 10.2697
643 1 2.3245 0.0000 5.6017
644 1 2.3245 2.5840 7.4689
645 1 3.8911 0.0000 8.4025
646 1 3.8911 2.5840 10.2697
647 1 5.4576 0.0000 5.6017
648 1 5.4576 2.5840 7.4689
649 1 7.0241 0.0000 8.4025
650 1 7.0241 2.5840 10.2697
651 1 8.5906 0.0000 5.6017
652 1 8.5906 2.5840 7.4689
653 1 10.1572 0.0000 8.4025
654 1 10.1572 2.5840 10.2697
655 1 11.7237 0.0000 5.6017
656 1 11.7237 2.5840 7.4689
657 1 13.2902 0.0000 8.4025
658 1 13.2902 2.5840 10.2697
659 1 14.8567 0.0000 5.6017
660 1 14.8567 2.5840 7.4689
661 1 16.4233 0.0000 8.4025
662 1 16.4233 2.5840 10.2697
663 1 17.9898 0.0000 5.6017
664 1 17.9898 2.5840 7.4689
665 1 19.5563 0.0000 8.4025
666 1 19.5563 2.5840 10.2697
667 1 21.1228 0.0000 5.6017
668 1 21.1228 2.5840 7.4689
669 1 22.6894 0.0000 8.4025
670 1 22.6894 2.5840 10.2697
671 1 -25.8730 5.1680 5.6017
672 1 -25.8730 7.7520 7.4689
673 1 -24.3064 5.1680 8.4025
674 1 -24.3064 7.7520 10.2697
675 1 -22.7399 5.1680 5.6017
676 1 -22.7399 7.7520 7.4689
677 1 -21.1734 5.1680 8.4025
678 1 -21.1734 7.7520 10.2697
679 1 -19.6069 5.1680 5.6017
680 1 -19.6069 7.7520 7.4689
681 1 -18.0403 5.1680 8.4025
682 1 -18.0403 7.7520 10.2697
683 1 -16.4738 5.1680 5.6017
684 1 -16.4738 7.7520 7.4689
685 1 -14.9073 5.1680 8.4025
686 1 -14.9073 7.7520 10.2697
687 1 -13.3407 5.1680 5.6017
688 1 -13.3407 7.7520 7.4689
689 1 -11.7742 5.1680 8.4025
690 1 -11.7742 7.7520 10.2697
691 1 -10.2077 5.1680 5.6017
692 1 -10.2077 7.7520 7.4689
693 1 -8.6412 5.1680 8.4025
694 1 -8.6412 7.7520 10.2697
695 1 -7.0746 5.1680 5.6017
696 1 -7.0746 7.7520 7.4689
697 1 -5.5081 5.1680 8.4025
698 1 -5.5081 7.7520 10.2697
699 1 -3.9416 5.1680 5.6017
700 1 -3.9416 7.7520 7.4689
701 1 -2.3751 5.1680 8.4025
702 1 -2.3751 7.7520 10.2697
703 1 -0.8085 5.1680 5.6017
704 1 -0.8085 7.7520 7.4689
705 1 0.7580 5.1680 8.4025
706 1 0.7580 7.7520 10.2697
707 1 2.3245 5.1680 5.6017
708 1 2.3245 7.7520 7.4689
709 1 3.8911 5.1680 8.4025
710 1 3.8911 7.7520 10.2697
711 1 5.4576 5.1680 5.6017
712 1 5.4576 7.7520 7.4689
713 1 7.0241 5.1680 8.4025
714 1 7.0241 7.7520 10.2697
715 1 8.5906 5.1680 5.6017
716 1 8.5906 7.7520 7.4689
717 1 10.1572 5.1680 8.4025
718 1 10.1572 7.7520 10.2697
719 1 11.7237 5.1680 5.6017
720 1 11.7237 7.7520 7.4689
721 1 13.2902 5.1680 8.4025
722 1 13.2902 7.7520 10.2697
723 1 14.8567 5.1680 5.6017
724 1 14.8567 7.7520 7.4689
725 1 16.4233 5.1680 8.4025
726 1 16.4233 7.7520 10.2697
727 1 17.9898 5.1680 5.6017
728 1 17.9898 7.7520 7.4689
729 1 19.5563 5.1680 8.4025
730 1 19.5563 7.7520 10.2697
731 1 21.1228 5.1680 5.6017
732 1 21.1228 7.7520 7.4689
733 1 22.6894 5.1680 8.4025
734 1 22.6894 7.7520 10.2697
735 1 -25.8730 0.0000 11.2033
736 1 -25.8730 2.5840 13.0705
737 1 -24.3064 0.0000 14.0042
738 1 -24.3064 2.5840 15.8714
739 1 -22.7399 0.0000 11.2033
740 1 -22.7399 2.5840 13.0705
741 1 -21.1734 0.0000 14.0042
742 1 -21.1734 2.5840 15.8714
743 1 -19.6069 0.0000 11.2033
744 1 -19.6069 2.5840 13.0705
745 1 -18.0403 0.0000 14.0042
746 1 -18.0403 2.5840 15.8714
747 1 -16.4738 0.0000 11.2033
748 1 -16.4738 2.5840 13.0705
749 1 -14.9073 0.0000 14.0042
750 1 -14.9073 2.5840 15.8714
751 1 -13.3407 0.0000 11.2033
752 1 -13.3407 2.5840 13.0705
753 1 -11.7742 0.0000 14.0042
754 1 -11.7742 2.5840 15.8714
755 1 -10.2077 0.0000 11.2033
756 1 -10.2077 2.5840 13.0705
757 1 -8.6412 0.0000 14.0042
758 1 -8.6412 2.5840 15.8714
759 1 -7.0746 0.0000 11.2033
760 1 -7.0746 2.5840 13.0705
761 1 -5.5081 0.0000 14.0042
762 1 -5.5081 2.5840 15.8714
763 1 -3.9416 0.0000 11.2033
764 1 -3.9416 2.5840 13.0705
765 1 -2.3751 0.0000 14.0042
766 1 -2.3751 2.5840 15.8714
767 1 -0.8085 0.0000 11.2033
768 1 -0.8085 2.5840 13.0705
769 1 0.7580 0.0000 14.0042
770 1 0.7580 2.5840 15.8714
771 1 2.3245 0.0000 11.2033
772 1 2.3245 2.5840 13.0705
773 1 3.8911 0.0000 14.0042
774 1 3.8911 2.5840 15.8714
775 1 5.4576 0.0000 11.2033
776 1 5.4576 2.5840 13.0705
777 1 7.0241 0.0000 14.0042
778 1 7.0241 2.5840 15.8714
779 1 8.5906 0.0000 11.2033
780 1 8.5906 2.5840 13.0705
781 1 10.1572 0.0000 14.0042
782 1 10.1572 2.5840 15.8714
783 1 11.7237 0.0000 11.2033
784 1 11.7237 2.5840 13.0705
785 1 13.2902 0.0000 14.0042
786 1 13.2902 2.5840 15.8714
787 1 14.8567 0.0000 11.2033
788 1 14.8567 2.5840 13.0705
789 1 16.4233 0.0000 14.0042
790 1 16.4233 2.5840 15.8714
791 1 17.9898 0.0000 11.2033
792 1 17.9898 2.5840 13.0705
793 1 19.5563 0.0000 14.0042
794 1 19.5563 2.5840 15.8714
795 1 21.1228 0.0000 11.2033
796 1 21.1228 2.5840 13.0705
797 1 22.6894 0.0000 14.0042
798 1 22.6894 2.5840 15.8714
799 1 -25.8730 5.1680 11.2033
800 1 -25.8730 7.7520 13.0705
801 1 -24.3064 5.1680 14.0042
802 1 -24.3064 7.7520 15.8714
803 1 -22.7399 5.1680 11.2033
804 1 -22.7399 7.7520 13.0705
805 1 -21.1734 5.1680 14.0042
806 1 -21.1734 7.7520 15.8714
807 1 -19.6069 5.1680 11.2033
808 1 -19.6069 7.7520 13.0705
809 1 -18.0403 5.1680 14.0042
810 1 -18.0403 7.7520 15.8714
811 1 -16.4738 5.1680 11.2033
812 1 -16.4738 7.7520 13.0705
813 1 -14.9073 5.1680 14.0042
814 1 -14.9073 7.7520 15.8714
815 1 -13.3407 5.1680 11.2033
816 1 -13.3407 7.7520 13.0705
817 1 -11.7742 5.1680 14.0042
818 1 -11.7742 7.7520 15.8714
819 1 -10.2077 5.1680 11.2033
820 1 -10.2077 7.7520 13.0705
821 1 -8.6412 5.1680 14.0042
822 1 -8.6412 7.7520 15.8714
823 1 -7.0746 5.1680 11.2033
824 1 -7.0746 7.7520 13.0705
825 1 -5.5081 5.1680 14.0042
826 1 -5.5081 7.7520 15.8714
827 1 -3.9416 5.1680 11.2033
828 1 -3.9416 7.7520 13.0705
829 1 -2.3751 5.1680 14.0042
830 1 -2.3751 7.7520 15.8714
831 1 -0.8085 5.1680 11.2033
832 1 -0.8085 7.7520 13.0705
833 1 0.7580 5.1680 14.0042
834 1 0.7580 7.7520 15.8714
835 1 2.3245 5.1680 11.2033
836 1 2.3245 7.7520 13.0705
837 1 3.8911 5.1680 14.0042
838 1 3.8911 7.7520 15.8714
839 1 5.4576 5.1680 11.2033
840 1 5.4576 7.7520 13.0705
841 1 7.0241 5.1680 14.0042
842 1 7.0241 7.7520 15.8714
843 1 8.5906 5.1680 11.2033
844 1 8.5906 7.7520 13.0705
845 1 10.1572 5.1680 14.0042
846 1 10.1572 7.7520 15.8714
847 1 11.7237 5.1680 11.2033
848 1 11.7237 7.7520 13.0705
849 1 13.2902 5.1680 14.0042
850 1 13.2902 7.7520 15.8714
851 1 14.8567 5.1680 11.2033
852 1 14.8567 7.7520 13.0705
853 1 16.4233 5.1680 14.0042
854 1 16.4233 7.7520 15.8714
855 1 17.9898 5.1680 11.2033
856 1 17.9898 7.7520 13.0705
857 1 19.5563 5.1680 14.0042
858 1 19.5563 7.7520 15.8714
859 1 21.1228 5.1680 11.2033
860 1 21.1228 7.7520 13.0705
861 1 22.6894 5.1680 14.0042
862 1 22.6894 7.7520 15.8714
863 1 -25.8730 0.0000 16.8050
864 1 -25.8730 2.5840 18.6722
865 1 -24.3064 0.0000 19.6058
866 1 -24.3064 2.5840 21.4730
867 1 -22.7399 0.0000 16.8050
868 1 -22.7399 2.5840 18.6722
869 1 -21.1734 0.0000 19.6058
870 1 -21.1734 2.5840 21.4730
871 1 -19.6069 0.0000 16.8050
872 1 -19.6069 2.5840 18.6722
873 1 -18.0403 0.0000 19.6058
874 1 -18.0403 2.5840 21.4730
875 1 -16.4738 0.0000 16.8050
876 1 -16.4738 2.5840 18.6722
877 1 -14.9073 0.0000 19.6058
878 1 -14.9073 2.5840 21.4730
879 1 -13.3407 0.0000 16.8050
880 1 -13.3407 2.5840 18.6722
881 1 -11.7742 0.0000 19.6058
882 1 -11.7742 2.5840 21.4730
883 1 -10.2077 0.0000 16.8050
884 1 -10.2077 2.5840 18.6722
885 1 -8.6412 0.0000 19.6058
886 1 -8.6412 2.5840 21.4730
887 1 -7.0746 0.0000 16.8050
888 1 -7.0746 2.5840 18.6722
889 1 -5.5081 0.0000 19.6058
890 1 -5.5081 2.5840 21.4730
891 1 -3.9416 0.0000 16.8050
892 1 -3.9416 2.5840 18.6722
893 1 -2.3751 0.0000 19.6058
894 1 -2.3751 2.5840 21.4730
895 1 -0.8085 0.0000 16.8050
896 1 -0.8085 2.5840 18.6722
897 1 0.7580 0.0000 19.6058
898 1 0.7580 2.5840 21.4730
899 1 2.3245 0.0000 16.8050
900 1 2.3245 2.5840 18.6722
901 1 3.8911 0.0000 19.6058
902 1 3.8911 2.5840 21.4730
903 1 5.4576 0.0000 16.8050
904 1 5.4576 2.5840 18.6722
905 1 7.0241 0.0000 19.6058
906 1 7.0241 2.5840 21.4730
907 1 8.5906 0.0000 16.8050
908 1 8.5906 2.5840 18.6722
909 1 10.1572 0.0000 19.6058
910 1 10.1572 2.5840 21.4730
911 1 11.7237 0.0000 16.8050
912 1 11.7237 2.5840 18.6722
913 1 13.2902 0.0000 19.6058
914 1 13.2902 2.5840 21.4730
915 1 14.8567 0.0000 16.8050
916 1 14.8567 2.5840 18.6722
917 1 16.4233 0.0000 19.6058
918 1 16.4233 2.5840 21.4730
919 1 17.9898 0.0000 16.8050
920 1 17.9898 2.5840 18.6722
921 1 19.5563 0.0000 19.6058
922 1 19.5563 2.5840 21.4730
923 1 21.1228 0.0000 16.8050
924 1 21.1228 2.5840 18.6722
925 1 22.6894 0.0000 19.6058
926 1 22.6894 2.5840 21.4730
927 1 -25.8730 5.1680 16.8050
928 1 -25.8730 7.7520 18.6722
929 1 -24.3064 5.1680 19.6058
930 1 -24.3064 7.7520 21.4730
931 1 -22.7399 5.1680 16.8050
932 1 -22.7399 7.7520 18.6722
933 1 -21.1734 5.1680 19.6058
934 1 -21.1734 7.7520 21.4730
935 1 -19.6069 5.1680 16.8050
936 1 -19.6069 7.7520 18.6722
937 1 -18.0403 5.1680 19.6058
938 1 -18.0403 7.7520 21.4730
939 1 -16.4738 5.1680 16.8050
940 1 -16.4738 7.7520 18.6722
941 1 -14.9073 5.1680 19.6058
942 1 -14.9073 7.7520 21.4730
943 1 -13.3407 5.1680 16.8050
944 1 -13.3407 7.7520 18.6722
945 1 -11.7742 5.1680 19.6058
946 1 -11.7742 7.7520 21.4730
947 1 -10.2077 5.1680 16.8050
948 1 -10.2077 7.7520 18.6722
949 1 -8.6412 5.1680 19.6058
950 1 -8.6412 7.7520 21.4730
951 1 -7.0746 5.1680 16.8050
952 1 -7.0746 7.7520 18.6722
953 1 -5.5081 5.1680 19.6058
954 1 -5.5081 7.7520 21.4730
955 1 -3.9416 5.1680 16.8050
956 1 -3.9416 7.7520 18.6722
957 1 -2.3751 5.1680 19.6058
958 1 -2.3751 7.7520 21.4730
959 1 -0.8085 5.1680 16.8050
960 1 -0.8085 7.7520 18.6722
961 1 0.7580 5.1680 19.6058
962 1 0.7580 7.7520 21.4730
963 1 2.3245 5.1680 16.8050
964 1 2.3245 7.7520 18.6722
965 1 3.8911 5.1680 19.6058
966 1 3.8911 7.7520 21.4730
967 1 5.4576 5.1680 16.8050
968 1 5.4576 7.7520 18.6722
969 1 7.0241 5.1680 19.6058
970 1 7.0241 7.7520 21.4730
971 1 8.5906 5.1680 16.8050
972 1 8.5906 7.7520 18.6722
973 1 10.1572 5.1680 19.6058
974 1 10.1572 7.7520 21.4730
975 1 11.7237 5.1680 16.8050
976 1 11.7237 7.7520 18.6722
977 1 13.2902 5.1680 19.6058
978 1 13.2902 7.7520 21.4730
979 1 14.8567 5.1680 16.8050
980 1 14.8567 7.7520 18.6722
981 1 16.4233 5.1680 19.6058
982 1 16.4233 7.7520 21.4730
983 1 17.9898 5.1680 16.8050
984 1 17.9898 7.7520 18.6722
985 1 19.5563 5.1680 19.6058
986 1 19.5563 7.7520 21.4730
987 1 21.1228 5.1680 16.8050
988 1 21.1228 7.7520 18.6722
989 1 22.6894 5.1680 19.6058
990 1 22.6894 7.7520 21.4730